 Entering Gaussian System, Link 0=g16
 Initial command:
 /opt/ohpc/pub/apps/uofm/gaussian/g16/l1.exe "/scratch/aarya/357508/Gau-3554661.inp" -scrdir="/scratch/aarya/357508/"
 Entering Link 1 = /opt/ohpc/pub/apps/uofm/gaussian/g16/l1.exe PID=   3554662.
  
 Copyright (c) 1988-2019, Gaussian, Inc.  All Rights Reserved.
  
 This is part of the Gaussian(R) 16 program.  It is based on
 the Gaussian(R) 09 system (copyright 2009, Gaussian, Inc.),
 the Gaussian(R) 03 system (copyright 2003, Gaussian, Inc.),
 the Gaussian(R) 98 system (copyright 1998, Gaussian, Inc.),
 the Gaussian(R) 94 system (copyright 1995, Gaussian, Inc.),
 the Gaussian 92(TM) system (copyright 1992, Gaussian, Inc.),
 the Gaussian 90(TM) system (copyright 1990, Gaussian, Inc.),
 the Gaussian 88(TM) system (copyright 1988, Gaussian, Inc.),
 the Gaussian 86(TM) system (copyright 1986, Carnegie Mellon
 University), and the Gaussian 82(TM) system (copyright 1983,
 Carnegie Mellon University). Gaussian is a federally registered
 trademark of Gaussian, Inc.
  
 This software contains proprietary and confidential information,
 including trade secrets, belonging to Gaussian, Inc.
  
 This software is provided under written license and may be
 used, copied, transmitted, or stored only in accord with that
 written license.
  
 The following legend is applicable only to US Government
 contracts under FAR:
  
                    RESTRICTED RIGHTS LEGEND
  
 Use, reproduction and disclosure by the US Government is
 subject to restrictions as set forth in subparagraphs (a)
 and (c) of the Commercial Computer Software - Restricted
 Rights clause in FAR 52.227-19.
  
 Gaussian, Inc.
 340 Quinnipiac St., Bldg. 40, Wallingford CT 06492
  
  
 ---------------------------------------------------------------
 Warning -- This program may not be used in any manner that
 competes with the business of Gaussian, Inc. or will provide
 assistance to any competitor of Gaussian, Inc.  The licensee
 of this program is prohibited from giving any competitor of
 Gaussian, Inc. access to this program.  By using this program,
 the user acknowledges that Gaussian, Inc. is engaged in the
 business of creating and licensing software in the field of
 computational chemistry and represents and warrants to the
 licensee that it is not a competitor of Gaussian, Inc. and that
 it will not use this program in any manner prohibited above.
 ---------------------------------------------------------------
  

 Cite this work as:
 Gaussian 16, Revision C.01,
 M. J. Frisch, G. W. Trucks, H. B. Schlegel, G. E. Scuseria, 
 M. A. Robb, J. R. Cheeseman, G. Scalmani, V. Barone, 
 G. A. Petersson, H. Nakatsuji, X. Li, M. Caricato, A. V. Marenich, 
 J. Bloino, B. G. Janesko, R. Gomperts, B. Mennucci, H. P. Hratchian, 
 J. V. Ortiz, A. F. Izmaylov, J. L. Sonnenberg, D. Williams-Young, 
 F. Ding, F. Lipparini, F. Egidi, J. Goings, B. Peng, A. Petrone, 
 T. Henderson, D. Ranasinghe, V. G. Zakrzewski, J. Gao, N. Rega, 
 G. Zheng, W. Liang, M. Hada, M. Ehara, K. Toyota, R. Fukuda, 
 J. Hasegawa, M. Ishida, T. Nakajima, Y. Honda, O. Kitao, H. Nakai, 
 T. Vreven, K. Throssell, J. A. Montgomery, Jr., J. E. Peralta, 
 F. Ogliaro, M. J. Bearpark, J. J. Heyd, E. N. Brothers, K. N. Kudin, 
 V. N. Staroverov, T. A. Keith, R. Kobayashi, J. Normand, 
 K. Raghavachari, A. P. Rendell, J. C. Burant, S. S. Iyengar, 
 J. Tomasi, M. Cossi, J. M. Millam, M. Klene, C. Adamo, R. Cammi, 
 J. W. Ochterski, R. L. Martin, K. Morokuma, O. Farkas, 
 J. B. Foresman, and D. J. Fox, Gaussian, Inc., Wallingford CT, 2019.
 
 ******************************************
 Gaussian 16:  ES64L-G16RevC.01  3-Jul-2019
                 7-Nov-2024 
 ******************************************
 %chk=1.chk
 %nprocshared=16
 Will use up to   16 processors via shared memory.
 %mem=80GB
 ----------------------------------------------------------------------
 #P b3lyp/gen opt freq scf=(xqc,maxcon=128,maxcyc=128) scrf(cpcm,read,s
 olvent=water) EmpiricalDispersion=GD3BJ
 ----------------------------------------------------------------------
 1/18=20,19=15,26=3,38=1,40=2/1,3;
 2/9=110,12=2,17=6,18=5,40=1/2;
 3/5=7,11=2,25=1,30=1,70=2103,71=1,72=1,74=-5,124=41/1,2,3;
 4//1;
 5/5=2,7=128,8=3,13=1,38=5,53=1,85=128/2,8;
 6/7=2,8=2,9=2,10=2,28=1/1;
 7//1,2,3,16;
 1/18=20,19=15,26=3/3(2);
 2/9=110/2;
 99//99;
 2/9=110/2;
 3/5=7,6=1,11=2,25=1,30=1,70=2105,71=1,72=1,74=-5,82=7,124=41/1,2,3;
 4/5=5,16=3,69=1/1;
 5/5=2,7=128,8=3,13=1,38=5,53=1,85=128/2,8;
 7//1,2,3,16;
 1/18=20,19=15,26=3/3(-5);
 2/9=110/2;
 6/7=2,8=2,9=2,10=2,19=2,28=1/1;
 99/9=1/99;
 Leave Link    1 at Thu Nov  7 11:35:28 2024, MaxMem= 10737418240 cpu:               4.0 elap:               0.6
 (Enter /opt/ohpc/pub/apps/uofm/gaussian/g16/l101.exe)
 -------------------------------
 Olsen Anilline doublet reactant
 -------------------------------
 Symbolic Z-matrix:
 Charge =  0 Multiplicity = 2
 Fe                   -0.64276  -0.16539   0.42708 
 C                    -1.7503   -2.07301  -2.20113 
 H                    -2.05637  -2.72894  -3.01035 
 C                    -3.21397  -1.33889   2.35164 
 H                    -4.00874  -1.73403   2.97754 
 C                     0.37992   1.83809   2.99573 
 H                     0.73564   2.43581   3.8295 
 C                     1.657     1.32267  -1.64271 
 H                     2.43985   1.73465  -2.27013 
 N                    -2.19207  -1.43339   0.12562 
 C                    -2.44228  -2.17559  -0.99948 
 C                    -3.56034  -3.06055  -0.77541 
 H                    -3.95785  -3.74703  -1.51227 
 C                    -3.98777  -2.83782   0.49795 
 H                    -4.8072   -3.30624   1.02823 
 C                    -3.12167  -1.82708   1.0559 
 N                    -1.29948   0.19507   2.29252 
 C                    -2.35484  -0.40868   2.92496 
 C                    -2.44864   0.0509    4.28989 
 H                    -3.20177  -0.27247   4.99737 
 C                    -1.42768   0.93252   4.47662 
 H                    -1.16699   1.48809   5.36856 
 C                    -0.71821   1.0153    3.22243 
 N                     0.72705   1.3014    0.62796 
 C                     1.04776   1.96772   1.78745 
 C                     2.16659   2.8519    1.56042 
 H                     2.60908   3.48908   2.31568 
 C                     2.52134   2.70761   0.25416 
 H                     3.32533   3.18656  -0.28864 
 C                     1.62037   1.73535  -0.31583 
 N                    -0.1953   -0.28479  -1.54972 
 C                     0.81229   0.37986  -2.21062 
 C                     0.9067   -0.08799  -3.57055 
 H                     1.62007   0.28106  -4.29628 
 C                    -0.03807  -1.05968  -3.72246 
 H                    -0.26901  -1.64477  -4.60381 
 C                    -0.7216   -1.18223  -2.4587 
 S                    -2.29234   1.48321  -0.57747 
 C                    -1.36638   2.9847   -1.00995 
 H                    -2.05681   3.73176  -1.41366 
 H                    -0.83293   3.3846   -0.14316 
 H                    -0.62531   2.74232  -1.78222 
 O                     0.37897  -1.36342   0.86642 
 N                     2.27339  -2.28734  -1.14128 
 C                     3.31632  -1.38913  -0.9707 
 H                     1.91869  -2.35057  -2.08825 
 H                     1.52058  -2.1851   -0.4583 
 C                     4.14584  -1.01497  -2.04824 
 C                     5.20329  -0.12703  -1.85593 
 C                     5.46384   0.41039  -0.59195 
 C                     4.64386   0.03949   0.48078 
 C                     3.58428  -0.84369   0.30305 
 H                     3.94806  -1.42548  -3.03671 
 H                     5.82883   0.14634  -2.70333 
 H                     6.28966   1.10117  -0.44423 
 H                     4.82026   0.45974   1.46809 
 H                     2.92278  -1.09327   1.12739 
 
 Add virtual bond connecting atoms H47        and O43        Dist= 3.65D+00.
 ITRead=  0  0  0  0  0  0  0  0  0  0  0  0  0  0  0  0  0  0  0  0
 ITRead=  0  0  0  0  0  0  0  0  0  0  0  0  0  0  0  0  0  0  0  0
 ITRead=  0  0  0  0  0  0  0  0  0  0  0  0  0  0  0  0  0
 MicOpt= -1 -1 -1 -1 -1 -1 -1 -1 -1 -1 -1 -1 -1 -1 -1 -1 -1 -1 -1 -1
 MicOpt= -1 -1 -1 -1 -1 -1 -1 -1 -1 -1 -1 -1 -1 -1 -1 -1 -1 -1 -1 -1
 MicOpt= -1 -1 -1 -1 -1 -1 -1 -1 -1 -1 -1 -1 -1 -1 -1 -1 -1
 NAtoms=     57 NQM=       57 NQMF=       0 NMMI=      0 NMMIF=      0
                NMic=       0 NMicF=      0.
                    Isotopes and Nuclear Properties:
 (Nuclear quadrupole moments (NQMom) in fm**2, nuclear magnetic moments (NMagM)
  in nuclear magnetons)

  Atom         1           2           3           4           5           6           7           8           9          10
 IAtWgt=          56          12           1          12           1          12           1          12           1          14
 AtmWgt=  55.9349393  12.0000000   1.0078250  12.0000000   1.0078250  12.0000000   1.0078250  12.0000000   1.0078250  14.0030740
 NucSpn=           0           0           1           0           1           0           1           0           1           2
 AtZEff=  -0.0000000  -0.0000000  -0.0000000  -0.0000000  -0.0000000  -0.0000000  -0.0000000  -0.0000000  -0.0000000  -0.0000000
 NQMom=    0.0000000   0.0000000   0.0000000   0.0000000   0.0000000   0.0000000   0.0000000   0.0000000   0.0000000   2.0440000
 NMagM=    0.0000000   0.0000000   2.7928460   0.0000000   2.7928460   0.0000000   2.7928460   0.0000000   2.7928460   0.4037610
 AtZNuc=  26.0000000   6.0000000   1.0000000   6.0000000   1.0000000   6.0000000   1.0000000   6.0000000   1.0000000   7.0000000

  Atom        11          12          13          14          15          16          17          18          19          20
 IAtWgt=          12          12           1          12           1          12          14          12          12           1
 AtmWgt=  12.0000000  12.0000000   1.0078250  12.0000000   1.0078250  12.0000000  14.0030740  12.0000000  12.0000000   1.0078250
 NucSpn=           0           0           1           0           1           0           2           0           0           1
 AtZEff=  -0.0000000  -0.0000000  -0.0000000  -0.0000000  -0.0000000  -0.0000000  -0.0000000  -0.0000000  -0.0000000  -0.0000000
 NQMom=    0.0000000   0.0000000   0.0000000   0.0000000   0.0000000   0.0000000   2.0440000   0.0000000   0.0000000   0.0000000
 NMagM=    0.0000000   0.0000000   2.7928460   0.0000000   2.7928460   0.0000000   0.4037610   0.0000000   0.0000000   2.7928460
 AtZNuc=   6.0000000   6.0000000   1.0000000   6.0000000   1.0000000   6.0000000   7.0000000   6.0000000   6.0000000   1.0000000

  Atom        21          22          23          24          25          26          27          28          29          30
 IAtWgt=          12           1          12          14          12          12           1          12           1          12
 AtmWgt=  12.0000000   1.0078250  12.0000000  14.0030740  12.0000000  12.0000000   1.0078250  12.0000000   1.0078250  12.0000000
 NucSpn=           0           1           0           2           0           0           1           0           1           0
 AtZEff=  -0.0000000  -0.0000000  -0.0000000  -0.0000000  -0.0000000  -0.0000000  -0.0000000  -0.0000000  -0.0000000  -0.0000000
 NQMom=    0.0000000   0.0000000   0.0000000   2.0440000   0.0000000   0.0000000   0.0000000   0.0000000   0.0000000   0.0000000
 NMagM=    0.0000000   2.7928460   0.0000000   0.4037610   0.0000000   0.0000000   2.7928460   0.0000000   2.7928460   0.0000000
 AtZNuc=   6.0000000   1.0000000   6.0000000   7.0000000   6.0000000   6.0000000   1.0000000   6.0000000   1.0000000   6.0000000

  Atom        31          32          33          34          35          36          37          38          39          40
 IAtWgt=          14          12          12           1          12           1          12          32          12           1
 AtmWgt=  14.0030740  12.0000000  12.0000000   1.0078250  12.0000000   1.0078250  12.0000000  31.9720718  12.0000000   1.0078250
 NucSpn=           2           0           0           1           0           1           0           0           0           1
 AtZEff=  -0.0000000  -0.0000000  -0.0000000  -0.0000000  -0.0000000  -0.0000000  -0.0000000  -0.0000000  -0.0000000  -0.0000000
 NQMom=    2.0440000   0.0000000   0.0000000   0.0000000   0.0000000   0.0000000   0.0000000   0.0000000   0.0000000   0.0000000
 NMagM=    0.4037610   0.0000000   0.0000000   2.7928460   0.0000000   2.7928460   0.0000000   0.0000000   0.0000000   2.7928460
 AtZNuc=   7.0000000   6.0000000   6.0000000   1.0000000   6.0000000   1.0000000   6.0000000  16.0000000   6.0000000   1.0000000

  Atom        41          42          43          44          45          46          47          48          49          50
 IAtWgt=           1           1          16          14          12           1           1          12          12          12
 AtmWgt=   1.0078250   1.0078250  15.9949146  14.0030740  12.0000000   1.0078250   1.0078250  12.0000000  12.0000000  12.0000000
 NucSpn=           1           1           0           2           0           1           1           0           0           0
 AtZEff=  -0.0000000  -0.0000000  -0.0000000  -0.0000000  -0.0000000  -0.0000000  -0.0000000  -0.0000000  -0.0000000  -0.0000000
 NQMom=    0.0000000   0.0000000   0.0000000   2.0440000   0.0000000   0.0000000   0.0000000   0.0000000   0.0000000   0.0000000
 NMagM=    2.7928460   2.7928460   0.0000000   0.4037610   0.0000000   2.7928460   2.7928460   0.0000000   0.0000000   0.0000000
 AtZNuc=   1.0000000   1.0000000   8.0000000   7.0000000   6.0000000   1.0000000   1.0000000   6.0000000   6.0000000   6.0000000

  Atom        51          52          53          54          55          56          57
 IAtWgt=          12          12           1           1           1           1           1
 AtmWgt=  12.0000000  12.0000000   1.0078250   1.0078250   1.0078250   1.0078250   1.0078250
 NucSpn=           0           0           1           1           1           1           1
 AtZEff=  -0.0000000  -0.0000000  -0.0000000  -0.0000000  -0.0000000  -0.0000000  -0.0000000
 NQMom=    0.0000000   0.0000000   0.0000000   0.0000000   0.0000000   0.0000000   0.0000000
 NMagM=    0.0000000   0.0000000   2.7928460   2.7928460   2.7928460   2.7928460   2.7928460
 AtZNuc=   6.0000000   6.0000000   1.0000000   1.0000000   1.0000000   1.0000000   1.0000000
 Leave Link  101 at Thu Nov  7 11:35:28 2024, MaxMem= 10737418240 cpu:               1.2 elap:               0.2
 (Enter /opt/ohpc/pub/apps/uofm/gaussian/g16/l103.exe)

 GradGradGradGradGradGradGradGradGradGradGradGradGradGradGradGradGradGrad
 Berny optimization.
 Initialization pass.
                           ----------------------------
                           !    Initial Parameters    !
                           ! (Angstroms and Degrees)  !
 --------------------------                            --------------------------
 ! Name  Definition              Value          Derivative Info.                !
 --------------------------------------------------------------------------------
 ! R1    R(1,10)                 2.0246         estimate D2E/DX2                !
 ! R2    R(1,17)                 2.0102         estimate D2E/DX2                !
 ! R3    R(1,24)                 2.017          estimate D2E/DX2                !
 ! R4    R(1,31)                 2.0303         estimate D2E/DX2                !
 ! R5    R(1,38)                 2.5393         estimate D2E/DX2                !
 ! R6    R(1,43)                 1.6347         estimate D2E/DX2                !
 ! R7    R(2,3)                  1.0857         estimate D2E/DX2                !
 ! R8    R(2,11)                 1.3904         estimate D2E/DX2                !
 ! R9    R(2,37)                 1.3849         estimate D2E/DX2                !
 ! R10   R(4,5)                  1.0861         estimate D2E/DX2                !
 ! R11   R(4,16)                 1.3877         estimate D2E/DX2                !
 ! R12   R(4,18)                 1.39           estimate D2E/DX2                !
 ! R13   R(6,7)                  1.0858         estimate D2E/DX2                !
 ! R14   R(6,23)                 1.3908         estimate D2E/DX2                !
 ! R15   R(6,25)                 1.3866         estimate D2E/DX2                !
 ! R16   R(8,9)                  1.0845         estimate D2E/DX2                !
 ! R17   R(8,30)                 1.3901         estimate D2E/DX2                !
 ! R18   R(8,32)                 1.3874         estimate D2E/DX2                !
 ! R19   R(10,11)                1.3709         estimate D2E/DX2                !
 ! R20   R(10,16)                1.3728         estimate D2E/DX2                !
 ! R21   R(11,12)                1.4434         estimate D2E/DX2                !
 ! R22   R(12,13)                1.0827         estimate D2E/DX2                !
 ! R23   R(12,14)                1.3615         estimate D2E/DX2                !
 ! R24   R(14,15)                1.0826         estimate D2E/DX2                !
 ! R25   R(14,16)                1.4433         estimate D2E/DX2                !
 ! R26   R(17,18)                1.3705         estimate D2E/DX2                !
 ! R27   R(17,23)                1.3695         estimate D2E/DX2                !
 ! R28   R(18,19)                1.4433         estimate D2E/DX2                !
 ! R29   R(19,20)                1.0827         estimate D2E/DX2                !
 ! R30   R(19,21)                1.3618         estimate D2E/DX2                !
 ! R31   R(21,22)                1.0827         estimate D2E/DX2                !
 ! R32   R(21,23)                1.4433         estimate D2E/DX2                !
 ! R33   R(24,25)                1.3752         estimate D2E/DX2                !
 ! R34   R(24,30)                1.3701         estimate D2E/DX2                !
 ! R35   R(25,26)                1.444          estimate D2E/DX2                !
 ! R36   R(26,27)                1.0827         estimate D2E/DX2                !
 ! R37   R(26,28)                1.3612         estimate D2E/DX2                !
 ! R38   R(28,29)                1.0819         estimate D2E/DX2                !
 ! R39   R(28,30)                1.4429         estimate D2E/DX2                !
 ! R40   R(31,32)                1.3761         estimate D2E/DX2                !
 ! R41   R(31,37)                1.3815         estimate D2E/DX2                !
 ! R42   R(32,33)                1.4413         estimate D2E/DX2                !
 ! R43   R(33,34)                1.0825         estimate D2E/DX2                !
 ! R44   R(33,35)                1.3638         estimate D2E/DX2                !
 ! R45   R(35,36)                1.0828         estimate D2E/DX2                !
 ! R46   R(35,37)                1.442          estimate D2E/DX2                !
 ! R47   R(38,39)                1.8163         estimate D2E/DX2                !
 ! R48   R(39,40)                1.0944         estimate D2E/DX2                !
 ! R49   R(39,41)                1.0935         estimate D2E/DX2                !
 ! R50   R(39,42)                1.0974         estimate D2E/DX2                !
 ! R51   R(43,47)                1.9322         estimate D2E/DX2                !
 ! R52   R(44,45)                1.3869         estimate D2E/DX2                !
 ! R53   R(44,46)                1.0132         estimate D2E/DX2                !
 ! R54   R(44,47)                1.0216         estimate D2E/DX2                !
 ! R55   R(45,48)                1.4104         estimate D2E/DX2                !
 ! R56   R(45,52)                1.4113         estimate D2E/DX2                !
 ! R57   R(48,49)                1.3941         estimate D2E/DX2                !
 ! R58   R(48,53)                1.0884         estimate D2E/DX2                !
 ! R59   R(49,50)                1.398          estimate D2E/DX2                !
 ! R60   R(49,54)                1.0882         estimate D2E/DX2                !
 ! R61   R(50,51)                1.4002         estimate D2E/DX2                !
 ! R62   R(50,55)                1.0867         estimate D2E/DX2                !
 ! R63   R(51,52)                1.3908         estimate D2E/DX2                !
 ! R64   R(51,56)                1.0874         estimate D2E/DX2                !
 ! R65   R(52,57)                1.086          estimate D2E/DX2                !
 ! A1    A(10,1,17)             90.0275         estimate D2E/DX2                !
 ! A2    A(10,1,31)             89.2463         estimate D2E/DX2                !
 ! A3    A(10,1,38)             81.4076         estimate D2E/DX2                !
 ! A4    A(10,1,43)             93.4004         estimate D2E/DX2                !
 ! A5    A(17,1,24)             89.9454         estimate D2E/DX2                !
 ! A6    A(17,1,38)             92.2045         estimate D2E/DX2                !
 ! A7    A(17,1,43)             94.945          estimate D2E/DX2                !
 ! A8    A(24,1,31)             89.4306         estimate D2E/DX2                !
 ! A9    A(24,1,38)             90.484          estimate D2E/DX2                !
 ! A10   A(24,1,43)             94.6871         estimate D2E/DX2                !
 ! A11   A(31,1,38)             78.2395         estimate D2E/DX2                !
 ! A12   A(31,1,43)             94.6362         estimate D2E/DX2                !
 ! A13   A(3,2,11)             117.34           estimate D2E/DX2                !
 ! A14   A(3,2,37)             117.346          estimate D2E/DX2                !
 ! A15   A(11,2,37)            125.2985         estimate D2E/DX2                !
 ! A16   A(5,4,16)             117.3083         estimate D2E/DX2                !
 ! A17   A(5,4,18)             117.2631         estimate D2E/DX2                !
 ! A18   A(16,4,18)            125.4111         estimate D2E/DX2                !
 ! A19   A(7,6,23)             117.3336         estimate D2E/DX2                !
 ! A20   A(7,6,25)             117.3789         estimate D2E/DX2                !
 ! A21   A(23,6,25)            125.2835         estimate D2E/DX2                !
 ! A22   A(9,8,30)             117.288          estimate D2E/DX2                !
 ! A23   A(9,8,32)             117.4392         estimate D2E/DX2                !
 ! A24   A(30,8,32)            125.199          estimate D2E/DX2                !
 ! A25   A(1,10,11)            126.9382         estimate D2E/DX2                !
 ! A26   A(1,10,16)            126.6479         estimate D2E/DX2                !
 ! A27   A(11,10,16)           106.0987         estimate D2E/DX2                !
 ! A28   A(2,11,10)            125.3449         estimate D2E/DX2                !
 ! A29   A(2,11,12)            124.3944         estimate D2E/DX2                !
 ! A30   A(10,11,12)           110.2378         estimate D2E/DX2                !
 ! A31   A(11,12,13)           124.5747         estimate D2E/DX2                !
 ! A32   A(11,12,14)           106.7419         estimate D2E/DX2                !
 ! A33   A(13,12,14)           128.6799         estimate D2E/DX2                !
 ! A34   A(12,14,15)           128.6769         estimate D2E/DX2                !
 ! A35   A(12,14,16)           106.722          estimate D2E/DX2                !
 ! A36   A(15,14,16)           124.6006         estimate D2E/DX2                !
 ! A37   A(4,16,10)            125.2316         estimate D2E/DX2                !
 ! A38   A(4,16,14)            124.5701         estimate D2E/DX2                !
 ! A39   A(10,16,14)           110.1954         estimate D2E/DX2                !
 ! A40   A(1,17,18)            126.9275         estimate D2E/DX2                !
 ! A41   A(1,17,23)            126.7884         estimate D2E/DX2                !
 ! A42   A(18,17,23)           106.1021         estimate D2E/DX2                !
 ! A43   A(4,18,17)            125.4802         estimate D2E/DX2                !
 ! A44   A(4,18,19)            124.2636         estimate D2E/DX2                !
 ! A45   A(17,18,19)           110.2546         estimate D2E/DX2                !
 ! A46   A(18,19,20)           124.6149         estimate D2E/DX2                !
 ! A47   A(18,19,21)           106.6845         estimate D2E/DX2                !
 ! A48   A(20,19,21)           128.7003         estimate D2E/DX2                !
 ! A49   A(19,21,22)           128.7338         estimate D2E/DX2                !
 ! A50   A(19,21,23)           106.6489         estimate D2E/DX2                !
 ! A51   A(22,21,23)           124.6162         estimate D2E/DX2                !
 ! A52   A(6,23,17)            125.3659         estimate D2E/DX2                !
 ! A53   A(6,23,21)            124.3119         estimate D2E/DX2                !
 ! A54   A(17,23,21)           110.3075         estimate D2E/DX2                !
 ! A55   A(1,24,25)            126.4911         estimate D2E/DX2                !
 ! A56   A(1,24,30)            127.1968         estimate D2E/DX2                !
 ! A57   A(25,24,30)           105.9784         estimate D2E/DX2                !
 ! A58   A(6,25,24)            125.2448         estimate D2E/DX2                !
 ! A59   A(6,25,26)            124.5701         estimate D2E/DX2                !
 ! A60   A(24,25,26)           110.1702         estimate D2E/DX2                !
 ! A61   A(25,26,27)           124.5658         estimate D2E/DX2                !
 ! A62   A(25,26,28)           106.732          estimate D2E/DX2                !
 ! A63   A(27,26,28)           128.702          estimate D2E/DX2                !
 ! A64   A(26,28,29)           128.918          estimate D2E/DX2                !
 ! A65   A(26,28,30)           106.7246         estimate D2E/DX2                !
 ! A66   A(29,28,30)           124.3435         estimate D2E/DX2                !
 ! A67   A(8,30,24)            125.4999         estimate D2E/DX2                !
 ! A68   A(8,30,28)            124.1023         estimate D2E/DX2                !
 ! A69   A(24,30,28)           110.3924         estimate D2E/DX2                !
 ! A70   A(1,31,32)            126.9092         estimate D2E/DX2                !
 ! A71   A(1,31,37)            126.5019         estimate D2E/DX2                !
 ! A72   A(32,31,37)           106.0628         estimate D2E/DX2                !
 ! A73   A(8,32,31)            125.2683         estimate D2E/DX2                !
 ! A74   A(8,32,33)            124.5365         estimate D2E/DX2                !
 ! A75   A(31,32,33)           110.1411         estimate D2E/DX2                !
 ! A76   A(32,33,34)           124.4093         estimate D2E/DX2                !
 ! A77   A(32,33,35)           106.9186         estimate D2E/DX2                !
 ! A78   A(34,33,35)           128.6657         estimate D2E/DX2                !
 ! A79   A(33,35,36)           128.5669         estimate D2E/DX2                !
 ! A80   A(33,35,37)           106.9368         estimate D2E/DX2                !
 ! A81   A(36,35,37)           124.4949         estimate D2E/DX2                !
 ! A82   A(2,37,31)            125.3391         estimate D2E/DX2                !
 ! A83   A(2,37,35)            124.7325         estimate D2E/DX2                !
 ! A84   A(31,37,35)           109.9282         estimate D2E/DX2                !
 ! A85   A(1,38,39)            107.4407         estimate D2E/DX2                !
 ! A86   A(38,39,40)           109.2997         estimate D2E/DX2                !
 ! A87   A(38,39,41)           111.2399         estimate D2E/DX2                !
 ! A88   A(38,39,42)           109.223          estimate D2E/DX2                !
 ! A89   A(40,39,41)           110.5183         estimate D2E/DX2                !
 ! A90   A(40,39,42)           108.4933         estimate D2E/DX2                !
 ! A91   A(41,39,42)           108.0077         estimate D2E/DX2                !
 ! A92   A(1,43,47)            119.7811         estimate D2E/DX2                !
 ! A93   A(45,44,46)           114.7477         estimate D2E/DX2                !
 ! A94   A(45,44,47)           114.0218         estimate D2E/DX2                !
 ! A95   A(46,44,47)           111.9084         estimate D2E/DX2                !
 ! A96   A(44,45,48)           121.3394         estimate D2E/DX2                !
 ! A97   A(44,45,52)           120.2705         estimate D2E/DX2                !
 ! A98   A(48,45,52)           118.3816         estimate D2E/DX2                !
 ! A99   A(43,47,44)           159.4421         estimate D2E/DX2                !
 ! A100  A(45,48,49)           120.643          estimate D2E/DX2                !
 ! A101  A(45,48,53)           119.1374         estimate D2E/DX2                !
 ! A102  A(49,48,53)           120.2191         estimate D2E/DX2                !
 ! A103  A(48,49,50)           120.7258         estimate D2E/DX2                !
 ! A104  A(48,49,54)           119.2494         estimate D2E/DX2                !
 ! A105  A(50,49,54)           120.0248         estimate D2E/DX2                !
 ! A106  A(49,50,51)           118.7965         estimate D2E/DX2                !
 ! A107  A(49,50,55)           120.5902         estimate D2E/DX2                !
 ! A108  A(51,50,55)           120.6131         estimate D2E/DX2                !
 ! A109  A(50,51,52)           121.0938         estimate D2E/DX2                !
 ! A110  A(50,51,56)           119.8817         estimate D2E/DX2                !
 ! A111  A(52,51,56)           119.0136         estimate D2E/DX2                !
 ! A112  A(45,52,51)           120.3591         estimate D2E/DX2                !
 ! A113  A(45,52,57)           118.7252         estimate D2E/DX2                !
 ! A114  A(51,52,57)           120.8629         estimate D2E/DX2                !
 ! A115  L(10,1,24,17,-1)      179.9729         estimate D2E/DX2                !
 ! A116  L(17,1,31,10,-1)      179.2738         estimate D2E/DX2                !
 ! A117  L(38,1,43,10,-1)      174.808          estimate D2E/DX2                !
 ! A118  L(10,1,24,17,-2)      188.1155         estimate D2E/DX2                !
 ! A119  L(17,1,31,10,-2)      170.4447         estimate D2E/DX2                !
 ! A120  L(38,1,43,10,-2)      172.8193         estimate D2E/DX2                !
 ! D1    D(17,1,10,11)        -177.9164         estimate D2E/DX2                !
 ! D2    D(17,1,10,16)          -5.2749         estimate D2E/DX2                !
 ! D3    D(31,1,10,11)          11.6388         estimate D2E/DX2                !
 ! D4    D(31,1,10,16)        -175.7197         estimate D2E/DX2                !
 ! D5    D(38,1,10,11)          89.8582         estimate D2E/DX2                !
 ! D6    D(38,1,10,16)         -97.5003         estimate D2E/DX2                !
 ! D7    D(43,1,10,11)         -82.9611         estimate D2E/DX2                !
 ! D8    D(43,1,10,16)          89.6804         estimate D2E/DX2                !
 ! D9    D(10,1,17,18)           4.6653         estimate D2E/DX2                !
 ! D10   D(10,1,17,23)         179.0694         estimate D2E/DX2                !
 ! D11   D(24,1,17,18)         176.5498         estimate D2E/DX2                !
 ! D12   D(24,1,17,23)          -9.0461         estimate D2E/DX2                !
 ! D13   D(38,1,17,18)          86.0675         estimate D2E/DX2                !
 ! D14   D(38,1,17,23)         -99.5283         estimate D2E/DX2                !
 ! D15   D(43,1,17,18)         -88.7502         estimate D2E/DX2                !
 ! D16   D(43,1,17,23)          85.6539         estimate D2E/DX2                !
 ! D17   D(17,1,24,25)           9.672          estimate D2E/DX2                !
 ! D18   D(17,1,24,30)        -177.9066         estimate D2E/DX2                !
 ! D19   D(31,1,24,25)        -179.8903         estimate D2E/DX2                !
 ! D20   D(31,1,24,30)          -7.4689         estimate D2E/DX2                !
 ! D21   D(38,1,24,25)         101.8761         estimate D2E/DX2                !
 ! D22   D(38,1,24,30)         -85.7025         estimate D2E/DX2                !
 ! D23   D(43,1,24,25)         -85.2851         estimate D2E/DX2                !
 ! D24   D(43,1,24,30)          87.1363         estimate D2E/DX2                !
 ! D25   D(10,1,31,32)         178.3132         estimate D2E/DX2                !
 ! D26   D(10,1,31,37)         -11.1857         estimate D2E/DX2                !
 ! D27   D(24,1,31,32)           6.3203         estimate D2E/DX2                !
 ! D28   D(24,1,31,37)         176.8214         estimate D2E/DX2                !
 ! D29   D(38,1,31,32)          96.9333         estimate D2E/DX2                !
 ! D30   D(38,1,31,37)         -92.5656         estimate D2E/DX2                !
 ! D31   D(43,1,31,32)         -88.3362         estimate D2E/DX2                !
 ! D32   D(43,1,31,37)          82.1649         estimate D2E/DX2                !
 ! D33   D(10,1,38,39)        -166.4839         estimate D2E/DX2                !
 ! D34   D(17,1,38,39)         103.8215         estimate D2E/DX2                !
 ! D35   D(24,1,38,39)          13.8575         estimate D2E/DX2                !
 ! D36   D(31,1,38,39)         -75.4601         estimate D2E/DX2                !
 ! D37   D(10,1,43,47)          93.5902         estimate D2E/DX2                !
 ! D38   D(17,1,43,47)        -176.0876         estimate D2E/DX2                !
 ! D39   D(24,1,43,47)         -85.7361         estimate D2E/DX2                !
 ! D40   D(31,1,43,47)           4.0716         estimate D2E/DX2                !
 ! D41   D(3,2,11,10)          179.8185         estimate D2E/DX2                !
 ! D42   D(3,2,11,12)           -2.0949         estimate D2E/DX2                !
 ! D43   D(37,2,11,10)          -1.6567         estimate D2E/DX2                !
 ! D44   D(37,2,11,12)         176.4299         estimate D2E/DX2                !
 ! D45   D(3,2,37,31)         -179.3917         estimate D2E/DX2                !
 ! D46   D(3,2,37,35)            0.4224         estimate D2E/DX2                !
 ! D47   D(11,2,37,31)           2.0837         estimate D2E/DX2                !
 ! D48   D(11,2,37,35)        -178.1023         estimate D2E/DX2                !
 ! D49   D(5,4,16,10)          179.3299         estimate D2E/DX2                !
 ! D50   D(5,4,16,14)           -1.3523         estimate D2E/DX2                !
 ! D51   D(18,4,16,10)          -2.239          estimate D2E/DX2                !
 ! D52   D(18,4,16,14)         177.0788         estimate D2E/DX2                !
 ! D53   D(5,4,18,17)          179.9655         estimate D2E/DX2                !
 ! D54   D(5,4,18,19)            0.4772         estimate D2E/DX2                !
 ! D55   D(16,4,18,17)           1.5338         estimate D2E/DX2                !
 ! D56   D(16,4,18,19)        -177.9546         estimate D2E/DX2                !
 ! D57   D(7,6,23,17)         -179.9465         estimate D2E/DX2                !
 ! D58   D(7,6,23,21)            1.5844         estimate D2E/DX2                !
 ! D59   D(25,6,23,17)           0.8068         estimate D2E/DX2                !
 ! D60   D(25,6,23,21)        -177.6623         estimate D2E/DX2                !
 ! D61   D(7,6,25,24)         -179.3035         estimate D2E/DX2                !
 ! D62   D(7,6,25,26)           -0.8485         estimate D2E/DX2                !
 ! D63   D(23,6,25,24)          -0.0571         estimate D2E/DX2                !
 ! D64   D(23,6,25,26)         178.3979         estimate D2E/DX2                !
 ! D65   D(9,8,30,24)         -178.4541         estimate D2E/DX2                !
 ! D66   D(9,8,30,28)            2.4724         estimate D2E/DX2                !
 ! D67   D(32,8,30,24)          -1.6682         estimate D2E/DX2                !
 ! D68   D(32,8,30,28)         179.2583         estimate D2E/DX2                !
 ! D69   D(9,8,32,31)          177.1816         estimate D2E/DX2                !
 ! D70   D(9,8,32,33)            0.1229         estimate D2E/DX2                !
 ! D71   D(30,8,32,31)           0.4001         estimate D2E/DX2                !
 ! D72   D(30,8,32,33)        -176.6586         estimate D2E/DX2                !
 ! D73   D(1,10,11,2)           -7.749          estimate D2E/DX2                !
 ! D74   D(1,10,11,12)         173.9336         estimate D2E/DX2                !
 ! D75   D(16,10,11,2)         178.3906         estimate D2E/DX2                !
 ! D76   D(16,10,11,12)          0.0733         estimate D2E/DX2                !
 ! D77   D(1,10,16,4)            5.0674         estimate D2E/DX2                !
 ! D78   D(1,10,16,14)        -174.3341         estimate D2E/DX2                !
 ! D79   D(11,10,16,4)         178.951          estimate D2E/DX2                !
 ! D80   D(11,10,16,14)         -0.4504         estimate D2E/DX2                !
 ! D81   D(2,11,12,13)           1.3808         estimate D2E/DX2                !
 ! D82   D(2,11,12,14)        -177.9909         estimate D2E/DX2                !
 ! D83   D(10,11,12,13)        179.7174         estimate D2E/DX2                !
 ! D84   D(10,11,12,14)          0.3457         estimate D2E/DX2                !
 ! D85   D(11,12,14,15)        179.6535         estimate D2E/DX2                !
 ! D86   D(11,12,14,16)         -0.5952         estimate D2E/DX2                !
 ! D87   D(13,12,14,15)          0.3162         estimate D2E/DX2                !
 ! D88   D(13,12,14,16)       -179.9324         estimate D2E/DX2                !
 ! D89   D(12,14,16,4)        -178.732          estimate D2E/DX2                !
 ! D90   D(12,14,16,10)          0.6743         estimate D2E/DX2                !
 ! D91   D(15,14,16,4)           1.0321         estimate D2E/DX2                !
 ! D92   D(15,14,16,10)       -179.5616         estimate D2E/DX2                !
 ! D93   D(1,17,18,4)           -3.7705         estimate D2E/DX2                !
 ! D94   D(1,17,18,19)         175.7788         estimate D2E/DX2                !
 ! D95   D(23,17,18,4)        -179.1083         estimate D2E/DX2                !
 ! D96   D(23,17,18,19)          0.441          estimate D2E/DX2                !
 ! D97   D(1,17,23,6)            5.7867         estimate D2E/DX2                !
 ! D98   D(1,17,23,21)        -175.5616         estimate D2E/DX2                !
 ! D99   D(18,17,23,6)        -178.867          estimate D2E/DX2                !
 ! D100  D(18,17,23,21)         -0.2153         estimate D2E/DX2                !
 ! D101  D(4,18,19,20)          -0.7805         estimate D2E/DX2                !
 ! D102  D(4,18,19,21)         179.0449         estimate D2E/DX2                !
 ! D103  D(17,18,19,20)        179.6636         estimate D2E/DX2                !
 ! D104  D(17,18,19,21)         -0.5111         estimate D2E/DX2                !
 ! D105  D(18,19,21,22)        179.9878         estimate D2E/DX2                !
 ! D106  D(18,19,21,23)          0.3556         estimate D2E/DX2                !
 ! D107  D(20,19,21,22)         -0.1964         estimate D2E/DX2                !
 ! D108  D(20,19,21,23)       -179.8286         estimate D2E/DX2                !
 ! D109  D(19,21,23,6)         178.5697         estimate D2E/DX2                !
 ! D110  D(19,21,23,17)         -0.0992         estimate D2E/DX2                !
 ! D111  D(22,21,23,6)          -1.0817         estimate D2E/DX2                !
 ! D112  D(22,21,23,17)       -179.7506         estimate D2E/DX2                !
 ! D113  D(1,24,25,6)           -7.1519         estimate D2E/DX2                !
 ! D114  D(1,24,25,26)         174.2034         estimate D2E/DX2                !
 ! D115  D(30,24,25,6)         179.1218         estimate D2E/DX2                !
 ! D116  D(30,24,25,26)          0.477          estimate D2E/DX2                !
 ! D117  D(1,24,30,8)            6.6484         estimate D2E/DX2                !
 ! D118  D(1,24,30,28)        -174.1701         estimate D2E/DX2                !
 ! D119  D(25,24,30,8)        -179.6836         estimate D2E/DX2                !
 ! D120  D(25,24,30,28)         -0.5021         estimate D2E/DX2                !
 ! D121  D(6,25,26,27)           1.2225         estimate D2E/DX2                !
 ! D122  D(6,25,26,28)        -178.93           estimate D2E/DX2                !
 ! D123  D(24,25,26,27)        179.8784         estimate D2E/DX2                !
 ! D124  D(24,25,26,28)         -0.2741         estimate D2E/DX2                !
 ! D125  D(25,26,28,29)       -178.7109         estimate D2E/DX2                !
 ! D126  D(25,26,28,30)         -0.0382         estimate D2E/DX2                !
 ! D127  D(27,26,28,29)          1.1282         estimate D2E/DX2                !
 ! D128  D(27,26,28,30)        179.8008         estimate D2E/DX2                !
 ! D129  D(26,28,30,8)         179.5366         estimate D2E/DX2                !
 ! D130  D(26,28,30,24)          0.3414         estimate D2E/DX2                !
 ! D131  D(29,28,30,8)          -1.7141         estimate D2E/DX2                !
 ! D132  D(29,28,30,24)        179.0906         estimate D2E/DX2                !
 ! D133  D(1,31,32,8)           -4.2007         estimate D2E/DX2                !
 ! D134  D(1,31,32,33)         173.2188         estimate D2E/DX2                !
 ! D135  D(37,31,32,8)        -176.2659         estimate D2E/DX2                !
 ! D136  D(37,31,32,33)          1.1536         estimate D2E/DX2                !
 ! D137  D(1,31,37,2)            6.8692         estimate D2E/DX2                !
 ! D138  D(1,31,37,35)        -172.9682         estimate D2E/DX2                !
 ! D139  D(32,31,37,2)         178.9766         estimate D2E/DX2                !
 ! D140  D(32,31,37,35)         -0.8608         estimate D2E/DX2                !
 ! D141  D(8,32,33,34)          -2.7283         estimate D2E/DX2                !
 ! D142  D(8,32,33,35)         176.4136         estimate D2E/DX2                !
 ! D143  D(31,32,33,34)        179.8293         estimate D2E/DX2                !
 ! D144  D(31,32,33,35)         -1.0288         estimate D2E/DX2                !
 ! D145  D(32,33,35,36)       -179.966          estimate D2E/DX2                !
 ! D146  D(32,33,35,37)          0.462          estimate D2E/DX2                !
 ! D147  D(34,33,35,36)         -0.8726         estimate D2E/DX2                !
 ! D148  D(34,33,35,37)        179.5553         estimate D2E/DX2                !
 ! D149  D(33,35,37,2)        -179.6008         estimate D2E/DX2                !
 ! D150  D(33,35,37,31)          0.2379         estimate D2E/DX2                !
 ! D151  D(36,35,37,2)           0.8052         estimate D2E/DX2                !
 ! D152  D(36,35,37,31)       -179.3562         estimate D2E/DX2                !
 ! D153  D(1,38,39,40)        -177.9724         estimate D2E/DX2                !
 ! D154  D(1,38,39,41)         -55.6588         estimate D2E/DX2                !
 ! D155  D(1,38,39,42)          63.4707         estimate D2E/DX2                !
 ! D156  D(1,43,47,44)          68.6796         estimate D2E/DX2                !
 ! D157  D(46,44,45,48)        -23.8653         estimate D2E/DX2                !
 ! D158  D(46,44,45,52)        157.2122         estimate D2E/DX2                !
 ! D159  D(47,44,45,48)       -154.8046         estimate D2E/DX2                !
 ! D160  D(47,44,45,52)         26.273          estimate D2E/DX2                !
 ! D161  D(45,44,47,43)         22.373          estimate D2E/DX2                !
 ! D162  D(46,44,47,43)       -109.9442         estimate D2E/DX2                !
 ! D163  D(44,45,48,49)       -178.9799         estimate D2E/DX2                !
 ! D164  D(44,45,48,53)          1.2771         estimate D2E/DX2                !
 ! D165  D(52,45,48,49)         -0.0376         estimate D2E/DX2                !
 ! D166  D(52,45,48,53)       -179.7807         estimate D2E/DX2                !
 ! D167  D(44,45,52,51)        178.895          estimate D2E/DX2                !
 ! D168  D(44,45,52,57)         -3.7246         estimate D2E/DX2                !
 ! D169  D(48,45,52,51)         -0.0589         estimate D2E/DX2                !
 ! D170  D(48,45,52,57)        177.3215         estimate D2E/DX2                !
 ! D171  D(45,48,49,50)          0.0239         estimate D2E/DX2                !
 ! D172  D(45,48,49,54)       -179.9834         estimate D2E/DX2                !
 ! D173  D(53,48,49,50)        179.7641         estimate D2E/DX2                !
 ! D174  D(53,48,49,54)         -0.2431         estimate D2E/DX2                !
 ! D175  D(48,49,50,51)          0.0853         estimate D2E/DX2                !
 ! D176  D(48,49,50,55)        179.9052         estimate D2E/DX2                !
 ! D177  D(54,49,50,51)       -179.9074         estimate D2E/DX2                !
 ! D178  D(54,49,50,55)         -0.0875         estimate D2E/DX2                !
 ! D179  D(49,50,51,52)         -0.1835         estimate D2E/DX2                !
 ! D180  D(49,50,51,56)       -178.9741         estimate D2E/DX2                !
 ! D181  D(55,50,51,52)        179.9967         estimate D2E/DX2                !
 ! D182  D(55,50,51,56)          1.2061         estimate D2E/DX2                !
 ! D183  D(50,51,52,45)          0.1717         estimate D2E/DX2                !
 ! D184  D(50,51,52,57)       -177.1521         estimate D2E/DX2                !
 ! D185  D(56,51,52,45)        178.9726         estimate D2E/DX2                !
 ! D186  D(56,51,52,57)          1.6488         estimate D2E/DX2                !
 --------------------------------------------------------------------------------
 Trust Radius=3.00D-01 FncErr=1.00D-07 GrdErr=1.00D-06 EigMax=2.50D+02 EigMin=1.00D-04
 Number of steps in this run=    342 maximum allowed number of steps=    342.
 GradGradGradGradGradGradGradGradGradGradGradGradGradGradGradGradGradGrad

 Leave Link  103 at Thu Nov  7 11:35:28 2024, MaxMem= 10737418240 cpu:               0.4 elap:               0.0
 (Enter /opt/ohpc/pub/apps/uofm/gaussian/g16/l202.exe)
 Stoichiometry    C27H22FeN5OS(2)
 Framework group  C1[X(C27H22FeN5OS)]
 Deg. of freedom   165
 Full point group                 C1      NOp   1
 Largest Abelian subgroup         C1      NOp   1
 Largest concise Abelian subgroup C1      NOp   1
                         Standard orientation:                         
 ---------------------------------------------------------------------
 Center     Atomic      Atomic             Coordinates (Angstroms)
 Number     Number       Type             X           Y           Z
 ---------------------------------------------------------------------
      1         26           0        0.815846    0.051265   -0.032671
      2          6           0        1.123874   -3.365906    0.001864
      3          1           0        1.196881   -4.447652   -0.055104
      4          6           0        4.064577    0.325445   -1.063549
      5          1           0        5.085210    0.417021   -1.423369
      6          6           0        0.548921    3.453705    0.067062
      7          1           0        0.448317    4.534680    0.048579
      8          6           0       -2.285564   -0.229520    1.412898
      9          1           0       -3.298350   -0.315834    1.791118
     10          7           0        2.307478   -1.260106   -0.425590
     11          6           0        2.223487   -2.628408   -0.422730
     12          6           0        3.461350   -3.205605   -0.889572
     13          1           0        3.649712   -4.268296   -0.975884
     14          6           0        4.297779   -2.167854   -1.167404
     15          1           0        5.315891   -2.199017   -1.534241
     16          6           0        3.565584   -0.956906   -0.883647
     17          7           0        2.064100    1.583172   -0.401729
     18          6           0        3.356428    1.502462   -0.850775
     19          6           0        3.887014    2.823854   -1.086226
     20          1           0        4.889587    3.030177   -1.439189
     21          6           0        2.892784    3.703967   -0.783948
     22          1           0        2.907187    4.785411   -0.833428
     23          6           0        1.760357    2.917751   -0.356543
     24          7           0       -0.578714    1.349544    0.629050
     25          6           0       -0.535086    2.720121    0.524819
     26          6           0       -1.774651    3.294709    0.992169
     27          1           0       -1.989974    4.355535    1.014742
     28          6           0       -2.568536    2.256768    1.373478
     29          1           0       -3.578778    2.280086    1.759864
     30          6           0       -1.814647    1.049190    1.138290
     31          7           0       -0.318396   -1.486052    0.654620
     32          6           0       -1.586711   -1.405739    1.182545
     33          6           0       -2.114755   -2.727573    1.408670
     34          1           0       -3.094551   -2.932671    1.820631
     35          6           0       -1.163839   -3.611562    0.991332
     36          1           0       -1.197127   -4.693800    1.001939
     37          6           0       -0.045682   -2.833522    0.518366
     38         16           0        1.704179   -0.231726    2.329303
     39          6           0        0.472687    0.474401    3.462316
     40          1           0        0.842358    0.400882    4.489792
     41          1           0        0.251096    1.514663    3.208208
     42          1           0       -0.459584   -0.099488    3.385895
     43          8           0        0.223083   -0.017284   -1.554571
     44          7           0       -2.127758   -1.679458   -1.983613
     45          6           0       -3.150605   -0.797820   -1.667288
     46          1           0       -2.149575   -2.554863   -1.473959
     47          1           0       -1.197568   -1.257156   -1.976216
     48          6           0       -4.369568   -1.253230   -1.123297
     49          6           0       -5.396027   -0.356469   -0.830346
     50          6           0       -5.239068    1.011869   -1.069866
     51          6           0       -4.031122    1.467516   -1.612028
     52          6           0       -2.997944    0.584515   -1.907243
     53          1           0       -4.499228   -2.316474   -0.929918
     54          1           0       -6.327024   -0.732545   -0.410924
     55          1           0       -6.041222    1.708763   -0.842106
     56          1           0       -3.883769    2.530134   -1.789909
     57          1           0       -2.046216    0.946784   -2.284599
 ---------------------------------------------------------------------
 Rotational constants (GHZ):           0.1756672           0.1156514           0.0916681
 Leave Link  202 at Thu Nov  7 11:35:28 2024, MaxMem= 10737418240 cpu:               0.8 elap:               0.1
 (Enter /opt/ohpc/pub/apps/uofm/gaussian/g16/l301.exe)
 General basis read from cards:  (5D, 7F)
 Centers:       1
 Def2SVP
 ****
 Centers:      38     43     10     17     24     31     44      2      4      6
 Centers:       8     11     12     14     16     18     19     21     23     25
 Centers:      26     28     30     32     33     35     37     39     45     48
 Centers:      49     50     51     52      3      5      7      9     13     15
 Centers:      20     22     27     29     34     36     40     41     42     46
 Centers:      47     53     54     55     56     57
 6-31G(d)
 ****
 Ernie: Thresh=  0.10000D-02 Tol=  0.10000D-05 Strict=F.
 There are   594 symmetry adapted cartesian basis functions of A   symmetry.
 There are   555 symmetry adapted basis functions of A   symmetry.
   555 basis functions,  1145 primitive gaussians,   594 cartesian basis functions
   135 alpha electrons      134 beta electrons
       nuclear repulsion energy      4766.6172911866 Hartrees.
 IExCor=  402 DFT=T Ex+Corr=B3LYP ExCW=0 ScaHFX=  0.200000
 ScaDFX=  0.800000  0.720000  1.000000  0.810000 ScalE2=  1.000000  1.000000
 IRadAn=      5 IRanWt=     -1 IRanGd=            0 ICorTp=0 IEmpDi=141
 NAtoms=   57 NActive=   57 NUniq=   57 SFac= 1.00D+00 NAtFMM=   60 NAOKFM=F Big=F
 Integral buffers will be    131072 words long.
 Raffenetti 2 integral format.
 Two-electron integral symmetry is turned on.
 R6Disp:  Grimme-D3(BJ) Dispersion energy=       -0.1730424372 Hartrees.
 Nuclear repulsion after empirical dispersion term =     4766.4442487494 Hartrees.
 Using the following non-standard input for PCM:
 radii=uff
 alpha=1.2
 eps=4.0
 --- end of non-standard input.
 ------------------------------------------------------------------------------
 Polarizable Continuum Model (PCM)
 =================================
 Model                : C-PCM.
 Atomic radii         : UFF (Universal Force Field).
 Polarization charges : Total charges.
 Charge compensation  : None.
 Solution method      : On-the-fly selection.
 Cavity type          : Scaled VdW (van der Waals Surface) (Alpha=1.200).
 Cavity algorithm     : GePol (No added spheres)
                        Default sphere list used, NSphG=   57.
                        Lebedev-Laikov grids with approx.  5.0 points / Ang**2.
                        Smoothing algorithm: York/Karplus (Gamma=1.0000).
                        Polarization charges: spherical gaussians, with
                                              point-specific exponents (IZeta= 3).
                        Self-potential: point-specific (ISelfS= 7).
                        Self-field    : sphere-specific E.n sum rule (ISelfD= 2).
 1st derivatives      : Analytical E(r).r(x)/FMM algorithm (CHGder, D1EAlg=3).
                        Cavity 1st derivative terms included.
 Solvent              : Water, Eps=   4.000000 Eps(inf)=   1.777849
 ------------------------------------------------------------------------------
 GePol: Number of generator spheres                  =      57
 GePol: Total number of spheres                      =      57
 GePol: Number of exposed spheres                    =      56 ( 98.25%)
 GePol: Number of points                             =    4215
 GePol: Average weight of points                     =       0.12
 GePol: Minimum weight of points                     =   0.36D-11
 GePol: Maximum weight of points                     =    0.21541
 GePol: Number of points with low weight             =     317
 GePol: Fraction of low-weight points (<1% of avg)   =       7.52%
 GePol: Cavity surface area                          =    500.588 Ang**2
 GePol: Cavity volume                                =    700.654 Ang**3
 Leave Link  301 at Thu Nov  7 11:35:28 2024, MaxMem= 10737418240 cpu:               0.6 elap:               0.2
 (Enter /opt/ohpc/pub/apps/uofm/gaussian/g16/l302.exe)
 NPDir=0 NMtPBC=     1 NCelOv=     1 NCel=       1 NClECP=     1 NCelD=      1
         NCelK=      1 NCelE2=     1 NClLst=     1 CellRange=     0.0.
 One-electron integrals computed using PRISM.
 One-electron integral symmetry used in STVInt
 NBasis=   555 RedAO= T EigKep=  3.85D-04  NBF=   555
 NBsUse=   555 1.00D-06 EigRej= -1.00D+00 NBFU=   555
 Precomputing XC quadrature grid using
 IXCGrd= 4 IRadAn=           5 IRanWt=          -1 IRanGd=           0 AccXCQ= 0.00D+00.
 Generated NRdTot=       0 NPtTot=           0 NUsed=           0 NTot=          32
 NSgBfM=   589   589   589   589   589 MxSgAt=    57 MxSgA2=    57.
 Leave Link  302 at Thu Nov  7 11:35:29 2024, MaxMem= 10737418240 cpu:               9.9 elap:               0.7
 (Enter /opt/ohpc/pub/apps/uofm/gaussian/g16/l303.exe)
 DipDrv:  MaxL=1.
 Leave Link  303 at Thu Nov  7 11:35:29 2024, MaxMem= 10737418240 cpu:               1.7 elap:               0.2
 (Enter /opt/ohpc/pub/apps/uofm/gaussian/g16/l401.exe)
 ExpMin= 3.37D-02 ExpMax= 6.09D+04 ExpMxC= 9.15D+03 IAcc=3 IRadAn=         5 AccDes= 0.00D+00
 Harris functional with IExCor=  402 and IRadAn=       5 diagonalized for initial guess.
 HarFok:  IExCor=  402 AccDes= 0.00D+00 IRadAn=         5 IDoV= 1 UseB2=F ITyADJ=14
 ICtDFT=  3500011 ScaDFX=  1.000000  1.000000  1.000000  1.000000
 FoFCou: FMM=F IPFlag=           0 FMFlag=      100000 FMFlg1=           0
         NFxFlg=           0 DoJE=T BraDBF=F KetDBF=T FulRan=T
         wScrn=  0.000000 ICntrl=       500 IOpCl=  0 I1Cent=   200000004 NGrid=           0
         NMat0=    1 NMatS0=      1 NMatT0=    0 NMatD0=    1 NMtDS0=    0 NMtDT0=    0
 Petite list used in FoFCou.
 Harris En= -3053.01058302608    
 JPrj=0 DoOrth=F DoCkMO=F.
 Initial guess <Sx>= 0.0000 <Sy>= 0.0000 <Sz>= 0.5000 <S**2>= 0.7500 S= 0.5000
 Leave Link  401 at Thu Nov  7 11:35:31 2024, MaxMem= 10737418240 cpu:              24.5 elap:               1.6
 (Enter /opt/ohpc/pub/apps/uofm/gaussian/g16/l502.exe)
 Integral symmetry usage will be decided dynamically.
 UHF open shell SCF:
 Using DIIS extrapolation, IDIIS=  1040.
 NGot= 10737418240 LenX= 10736695281 LenY= 10736341851
 Requested convergence on RMS density matrix=1.00D-08 within 128 cycles.
 Requested convergence on MAX density matrix=1.00D-06.
 Requested convergence on             energy=1.00D-06.
 No special actions if energy rises.
 Fock matrices will be formed incrementally for  20 cycles.

 Cycle   1  Pass 1  IDiag  1:
 FoFJK:  IHMeth= 1 ICntrl=       0 DoSepK=F KAlg= 0 I1Cent=           0 FoldK=F
 IRaf= 760000000 NMat=       1 IRICut=       1 DoRegI=T DoRafI=F ISym2E= 0 IDoP0=0 IntGTp=1.
 FoFCou: FMM=F IPFlag=           0 FMFlag=      100000 FMFlg1=           0
         NFxFlg=           0 DoJE=F BraDBF=F KetDBF=F FulRan=T
         wScrn=  0.000000 ICntrl=         0 IOpCl=  1 I1Cent=           0 NGrid=           0
         NMat0=    1 NMatS0=      1 NMatT0=    0 NMatD0=    1 NMtDS0=    0 NMtDT0=    0
 Symmetry not used in FoFCou.
 Inv3:  Mode=1 IEnd=    53298675.
 Iteration    1 A*A^-1 deviation from unit magnitude is 3.44D-15 for    750.
 Iteration    1 A*A^-1 deviation from orthogonality  is 2.05D-15 for    763    150.
 Iteration    1 A^-1*A deviation from unit magnitude is 3.55D-15 for    111.
 Iteration    1 A^-1*A deviation from orthogonality  is 2.44D-15 for   3749    111.
 E= -3050.89481444975    
 DIIS: error= 8.87D-02 at cycle   1 NSaved=   1.
 NSaved= 1 IEnMin= 1 EnMin= -3050.89481444975     IErMin= 1 ErrMin= 8.87D-02
 ErrMax= 8.87D-02  0.00D+00 EMaxC= 1.00D-01 BMatC= 1.09D+01 BMatP= 1.09D+01
 IDIUse=3 WtCom= 1.13D-01 WtEn= 8.87D-01
 Coeff-Com:  0.100D+01
 Coeff-En:   0.100D+01
 Coeff:      0.100D+01
 Gap=     0.177 Goal=   None    Shift=    0.000
 Gap=    -0.033 Goal=   None    Shift=    0.000
 GapD=   -0.033 DampG=0.250 DampE=0.250 DampFc=0.1250 IDamp=-1.
 Damping current iteration by 1.25D-01
 RMSDP=1.05D-02 MaxDP=2.66D+00              OVMax= 9.01D-01

 Cycle   2  Pass 1  IDiag  1:
 RMSU=  1.31D-03    CP:  9.95D-01
 E= -3051.77415168962     Delta-E=       -0.879337239872 Rises=F Damp=T
 DIIS: error= 4.03D-02 at cycle   2 NSaved=   2.
 NSaved= 2 IEnMin= 2 EnMin= -3051.77415168962     IErMin= 2 ErrMin= 4.03D-02
 ErrMax= 4.03D-02  0.00D+00 EMaxC= 1.00D-01 BMatC= 3.09D+00 BMatP= 1.09D+01
 IDIUse=3 WtCom= 5.97D-01 WtEn= 4.03D-01
 Coeff-Com: -0.831D+00 0.183D+01
 Coeff-En:   0.000D+00 0.100D+01
 Coeff:     -0.496D+00 0.150D+01
 Gap=     0.003 Goal=   None    Shift=    0.000
 Gap=    -0.029 Goal=   None    Shift=    0.000
 RMSDP=4.06D-03 MaxDP=5.46D-01 DE=-8.79D-01 OVMax= 9.74D-01

 Cycle   3  Pass 1  IDiag  1:
 RMSU=  3.95D-03    CP:  9.51D-01  1.44D+00
 E= -3045.63704747874     Delta-E=        6.137104210879 Rises=F Damp=F
 DIIS: error= 2.42D-01 at cycle   3 NSaved=   3.
 NSaved= 3 IEnMin= 2 EnMin= -3051.77415168962     IErMin= 2 ErrMin= 4.03D-02
 ErrMax= 2.42D-01  0.00D+00 EMaxC= 1.00D-01 BMatC= 3.23D+01 BMatP= 3.09D+00
 IDIUse=2 WtCom= 0.00D+00 WtEn= 1.00D+00
 EnCoef did    23 forward-backward iterations
 Coeff-En:   0.239D+00 0.538D+00 0.223D+00
 Coeff:      0.239D+00 0.538D+00 0.223D+00
 Gap=     0.112 Goal=   None    Shift=    0.000
 Gap=     0.006 Goal=   None    Shift=    0.000
 RMSDP=3.61D-03 MaxDP=4.80D-01 DE= 6.14D+00 OVMax= 5.86D-01

 Cycle   4  Pass 1  IDiag  1:
 RMSU=  3.11D-03    CP:  9.49D-01  1.72D+00  5.46D-01
 E= -3047.01787426322     Delta-E=       -1.380826784479 Rises=F Damp=F
 DIIS: error= 2.78D-01 at cycle   4 NSaved=   4.
 NSaved= 4 IEnMin= 2 EnMin= -3051.77415168962     IErMin= 2 ErrMin= 4.03D-02
 ErrMax= 2.78D-01  0.00D+00 EMaxC= 1.00D-01 BMatC= 2.71D+01 BMatP= 3.09D+00
 IDIUse=2 WtCom= 0.00D+00 WtEn= 1.00D+00
 EnCoef did   100 forward-backward iterations
 Coeff-En:   0.593D+00 0.366D-01 0.163D+00 0.208D+00
 Coeff:      0.593D+00 0.366D-01 0.163D+00 0.208D+00
 Gap=     0.038 Goal=   None    Shift=    0.000
 Gap=     0.006 Goal=   None    Shift=    0.000
 RMSDP=3.74D-03 MaxDP=5.64D-01 DE=-1.38D+00 OVMax= 9.99D-01

 Cycle   5  Pass 1  IDiag  1:
 RMSU=  1.99D-03    CP:  9.65D-01  6.36D-01  4.23D-01  1.10D-01
 E= -3052.60827427504     Delta-E=       -5.590400011817 Rises=F Damp=F
 DIIS: error= 3.74D-02 at cycle   5 NSaved=   5.
 NSaved= 5 IEnMin= 5 EnMin= -3052.60827427504     IErMin= 5 ErrMin= 3.74D-02
 ErrMax= 3.74D-02  0.00D+00 EMaxC= 1.00D-01 BMatC= 1.67D+00 BMatP= 3.09D+00
 IDIUse=3 WtCom= 6.26D-01 WtEn= 3.74D-01
 Coeff-Com: -0.503D+00 0.998D+00 0.265D-01 0.158D-01 0.462D+00
 Coeff-En:   0.000D+00 0.000D+00 0.000D+00 0.142D+00 0.858D+00
 Coeff:     -0.315D+00 0.625D+00 0.166D-01 0.631D-01 0.610D+00
 Gap=     0.071 Goal=   None    Shift=    0.000
 Gap=    -0.003 Goal=   None    Shift=    0.000
 RMSDP=3.12D-03 MaxDP=4.21D-01 DE=-5.59D+00 OVMax= 9.86D-01

 Cycle   6  Pass 1  IDiag  1:
 RMSU=  2.36D-03    CP:  9.59D-01  8.22D-01  3.86D-01  4.57D-01  1.45D-01
 E= -3050.59674299398     Delta-E=        2.011531281054 Rises=F Damp=F
 DIIS: error= 1.21D-01 at cycle   6 NSaved=   6.
 NSaved= 6 IEnMin= 5 EnMin= -3052.60827427504     IErMin= 5 ErrMin= 3.74D-02
 ErrMax= 1.21D-01  0.00D+00 EMaxC= 1.00D-01 BMatC= 9.89D+00 BMatP= 1.67D+00
 IDIUse=2 WtCom= 0.00D+00 WtEn= 1.00D+00
 Coeff-En:   0.000D+00 0.000D+00 0.000D+00 0.000D+00 0.751D+00 0.249D+00
 Coeff:      0.000D+00 0.000D+00 0.000D+00 0.000D+00 0.751D+00 0.249D+00
 Gap=     0.002 Goal=   None    Shift=    0.000
 Gap=    -0.017 Goal=   None    Shift=    0.000
 RMSDP=2.76D-03 MaxDP=4.41D-01 DE= 2.01D+00 OVMax= 8.19D-01

 Cycle   7  Pass 1  IDiag  1:
 RMSU=  1.84D-03    CP:  9.64D-01  1.02D+00  3.70D-01  3.73D-01  4.33D-01
                    CP:  1.82D-01
 E= -3052.08786248204     Delta-E=       -1.491119488058 Rises=F Damp=F
 DIIS: error= 6.59D-02 at cycle   7 NSaved=   7.
 NSaved= 7 IEnMin= 5 EnMin= -3052.60827427504     IErMin= 5 ErrMin= 3.74D-02
 ErrMax= 6.59D-02  0.00D+00 EMaxC= 1.00D-01 BMatC= 3.27D+00 BMatP= 1.67D+00
 IDIUse=2 WtCom= 0.00D+00 WtEn= 1.00D+00
 EnCoef did     6 forward-backward iterations
 Coeff-En:   0.000D+00 0.000D+00 0.000D+00 0.000D+00 0.668D+00 0.165D+00
 Coeff-En:   0.168D+00
 Coeff:      0.000D+00 0.000D+00 0.000D+00 0.000D+00 0.668D+00 0.165D+00
 Coeff:      0.168D+00
 Gap=    -0.027 Goal=   None    Shift=    0.000
 Gap=     0.052 Goal=   None    Shift=    0.000
 RMSDP=2.13D-03 MaxDP=2.66D-01 DE=-1.49D+00 OVMax= 8.04D-01

 Cycle   8  Pass 1  IDiag  1:
 RMSU=  1.06D-03    CP:  9.69D-01  5.49D-01  3.13D-01  2.07D-01  5.28D-01
                    CP:  3.10D-01  1.26D-01
 E= -3052.90202673480     Delta-E=       -0.814164252758 Rises=F Damp=F
 DIIS: error= 1.44D-02 at cycle   8 NSaved=   8.
 NSaved= 8 IEnMin= 8 EnMin= -3052.90202673480     IErMin= 8 ErrMin= 1.44D-02
 ErrMax= 1.44D-02  0.00D+00 EMaxC= 1.00D-01 BMatC= 4.32D-01 BMatP= 1.67D+00
 IDIUse=3 WtCom= 8.56D-01 WtEn= 1.44D-01
 EnCoef did     4 forward-backward iterations
 Coeff-Com: -0.152D+00 0.183D+00 0.224D-01-0.191D-01 0.303D+00 0.106D-01
 Coeff-Com:  0.118D+00 0.534D+00
 Coeff-En:   0.000D+00 0.000D+00 0.000D+00 0.000D+00 0.233D+00 0.000D+00
 Coeff-En:   0.145D+00 0.622D+00
 Coeff:     -0.130D+00 0.157D+00 0.192D-01-0.164D-01 0.293D+00 0.906D-02
 Coeff:      0.122D+00 0.546D+00
 Gap=     0.030 Goal=   None    Shift=    0.000
 Gap=     0.037 Goal=   None    Shift=    0.000
 RMSDP=7.21D-04 MaxDP=7.84D-02 DE=-8.14D-01 OVMax= 2.13D-01

 Cycle   9  Pass 1  IDiag  1:
 RMSU=  5.81D-04    CP:  9.66D-01  6.99D-01  3.87D-01  2.09D-01  6.15D-01
                    CP:  2.54D-01  1.47D-01  9.30D-01
 E= -3052.99711791443     Delta-E=       -0.095091179634 Rises=F Damp=F
 DIIS: error= 1.43D-02 at cycle   9 NSaved=   9.
 NSaved= 9 IEnMin= 9 EnMin= -3052.99711791443     IErMin= 9 ErrMin= 1.43D-02
 ErrMax= 1.43D-02  0.00D+00 EMaxC= 1.00D-01 BMatC= 1.44D-01 BMatP= 4.32D-01
 IDIUse=3 WtCom= 8.57D-01 WtEn= 1.43D-01
 EnCoef did     1 forward-backward iterations
 Coeff-Com: -0.720D-01 0.114D+00-0.242D-02 0.983D-03 0.170D+00-0.296D-01
 Coeff-Com:  0.697D-01 0.271D+00 0.478D+00
 Coeff-En:   0.000D+00 0.000D+00 0.000D+00 0.000D+00 0.189D-01 0.000D+00
 Coeff-En:   0.000D+00 0.391D-01 0.942D+00
 Coeff:     -0.617D-01 0.977D-01-0.207D-02 0.842D-03 0.149D+00-0.254D-01
 Coeff:      0.597D-01 0.238D+00 0.544D+00
 Gap=     0.031 Goal=   None    Shift=    0.000
 Gap=     0.061 Goal=   None    Shift=    0.000
 RMSDP=4.18D-04 MaxDP=6.31D-02 DE=-9.51D-02 OVMax= 1.06D-01

 Cycle  10  Pass 1  IDiag  1:
 RMSU=  3.73D-04    CP:  9.66D-01  6.60D-01  3.65D-01  2.26D-01  6.53D-01
                    CP:  2.29D-01  1.65D-01  8.56D-01  1.14D+00
 E= -3053.02447432948     Delta-E=       -0.027356415052 Rises=F Damp=F
 DIIS: error= 5.68D-03 at cycle  10 NSaved=  10.
 NSaved=10 IEnMin=10 EnMin= -3053.02447432948     IErMin=10 ErrMin= 5.68D-03
 ErrMax= 5.68D-03  0.00D+00 EMaxC= 1.00D-01 BMatC= 3.67D-02 BMatP= 1.44D-01
 IDIUse=3 WtCom= 9.43D-01 WtEn= 5.68D-02
 Coeff-Com: -0.332D-01 0.658D-01 0.120D-02-0.299D-02 0.600D-01-0.132D-01
 Coeff-Com:  0.351D-01 0.704D-02 0.335D+00 0.546D+00
 Coeff-En:   0.000D+00 0.000D+00 0.000D+00 0.000D+00 0.000D+00 0.000D+00
 Coeff-En:   0.000D+00 0.000D+00 0.871D-01 0.913D+00
 Coeff:     -0.313D-01 0.621D-01 0.114D-02-0.282D-02 0.566D-01-0.124D-01
 Coeff:      0.331D-01 0.664D-02 0.320D+00 0.566D+00
 Gap=     0.028 Goal=   None    Shift=    0.000
 Gap=     0.069 Goal=   None    Shift=    0.000
 RMSDP=3.89D-04 MaxDP=5.59D-02 DE=-2.74D-02 OVMax= 1.73D-01

 Cycle  11  Pass 1  IDiag  1:
 RMSU=  2.38D-04    CP:  9.65D-01  7.20D-01  3.89D-01  2.38D-01  6.35D-01
                    CP:  2.37D-01  2.23D-01  7.49D-01  1.50D+00  1.25D+00
 E= -3053.03281992437     Delta-E=       -0.008345594888 Rises=F Damp=F
 DIIS: error= 8.53D-03 at cycle  11 NSaved=  11.
 NSaved=11 IEnMin=11 EnMin= -3053.03281992437     IErMin=10 ErrMin= 5.68D-03
 ErrMax= 8.53D-03  0.00D+00 EMaxC= 1.00D-01 BMatC= 4.54D-02 BMatP= 3.67D-02
 IDIUse=3 WtCom= 9.43D-01 WtEn= 5.68D-02
 Coeff-Com: -0.154D-01 0.386D-01 0.548D-03-0.356D-02 0.477D-01-0.471D-02
 Coeff-Com:  0.107D-01-0.144D-01 0.433D-01 0.417D+00 0.480D+00
 Coeff-En:   0.000D+00 0.000D+00 0.000D+00 0.000D+00 0.000D+00 0.000D+00
 Coeff-En:   0.000D+00 0.000D+00 0.000D+00 0.253D+00 0.747D+00
 Coeff:     -0.145D-01 0.364D-01 0.517D-03-0.336D-02 0.450D-01-0.444D-02
 Coeff:      0.101D-01-0.136D-01 0.409D-01 0.408D+00 0.495D+00
 Gap=     0.030 Goal=   None    Shift=    0.000
 Gap=     0.084 Goal=   None    Shift=    0.000
 RMSDP=1.82D-04 MaxDP=1.66D-02 DE=-8.35D-03 OVMax= 5.40D-02

 Cycle  12  Pass 1  IDiag  1:
 RMSU=  8.00D-05    CP:  9.65D-01  7.05D-01  3.87D-01  2.41D-01  6.45D-01
                    CP:  2.34D-01  2.38D-01  6.71D-01  1.55D+00  1.57D+00
                    CP:  1.24D+00
 E= -3053.04154131759     Delta-E=       -0.008721393222 Rises=F Damp=F
 DIIS: error= 3.94D-03 at cycle  12 NSaved=  12.
 NSaved=12 IEnMin=12 EnMin= -3053.04154131759     IErMin=12 ErrMin= 3.94D-03
 ErrMax= 3.94D-03  0.00D+00 EMaxC= 1.00D-01 BMatC= 8.76D-03 BMatP= 3.67D-02
 IDIUse=3 WtCom= 9.61D-01 WtEn= 3.94D-02
 Coeff-Com: -0.271D-01 0.459D-01 0.194D-02-0.292D-02 0.432D-01 0.134D-04
 Coeff-Com: -0.147D-01 0.292D-01-0.147D+00-0.274D-02 0.111D+00 0.964D+00
 Coeff-En:   0.000D+00 0.000D+00 0.000D+00 0.000D+00 0.000D+00 0.000D+00
 Coeff-En:   0.000D+00 0.000D+00 0.000D+00 0.000D+00 0.000D+00 0.100D+01
 Coeff:     -0.260D-01 0.441D-01 0.186D-02-0.280D-02 0.415D-01 0.129D-04
 Coeff:     -0.141D-01 0.280D-01-0.142D+00-0.263D-02 0.106D+00 0.965D+00
 Gap=     0.036 Goal=   None    Shift=    0.000
 Gap=     0.095 Goal=   None    Shift=    0.000
 RMSDP=1.74D-04 MaxDP=1.48D-02 DE=-8.72D-03 OVMax= 8.22D-02

 Cycle  13  Pass 1  IDiag  1:
 RMSU=  7.04D-05    CP:  9.64D-01  7.07D-01  3.90D-01  2.41D-01  6.54D-01
                    CP:  2.37D-01  2.53D-01  5.96D-01  1.55D+00  1.82D+00
                    CP:  1.62D+00  1.31D+00
 E= -3053.04405546571     Delta-E=       -0.002514148119 Rises=F Damp=F
 DIIS: error= 2.26D-03 at cycle  13 NSaved=  13.
 NSaved=13 IEnMin=13 EnMin= -3053.04405546571     IErMin=13 ErrMin= 2.26D-03
 ErrMax= 2.26D-03  0.00D+00 EMaxC= 1.00D-01 BMatC= 4.68D-03 BMatP= 8.76D-03
 IDIUse=3 WtCom= 9.77D-01 WtEn= 2.26D-02
 Coeff-Com: -0.134D-01 0.183D-01 0.217D-03-0.268D-03 0.299D-01-0.109D-02
 Coeff-Com: -0.959D-02 0.513D-01-0.611D-01-0.128D+00-0.245D+00 0.660D+00
 Coeff-Com:  0.698D+00
 Coeff-En:   0.000D+00 0.000D+00 0.000D+00 0.000D+00 0.000D+00 0.000D+00
 Coeff-En:   0.000D+00 0.000D+00 0.000D+00 0.000D+00 0.000D+00 0.000D+00
 Coeff-En:   0.100D+01
 Coeff:     -0.131D-01 0.179D-01 0.212D-03-0.262D-03 0.292D-01-0.107D-02
 Coeff:     -0.937D-02 0.502D-01-0.597D-01-0.125D+00-0.239D+00 0.645D+00
 Coeff:      0.704D+00
 Gap=     0.037 Goal=   None    Shift=    0.000
 Gap=     0.092 Goal=   None    Shift=    0.000
 RMSDP=8.97D-05 MaxDP=1.01D-02 DE=-2.51D-03 OVMax= 3.11D-02

 Cycle  14  Pass 1  IDiag  1:
 RMSU=  4.50D-05    CP:  9.64D-01  7.03D-01  3.91D-01  2.42D-01  6.59D-01
                    CP:  2.31D-01  2.60D-01  5.58D-01  1.56D+00  1.89D+00
                    CP:  1.80D+00  1.75D+00  8.05D-01
 E= -3053.04503859413     Delta-E=       -0.000983128420 Rises=F Damp=F
 DIIS: error= 6.55D-04 at cycle  14 NSaved=  14.
 NSaved=14 IEnMin=14 EnMin= -3053.04503859413     IErMin=14 ErrMin= 6.55D-04
 ErrMax= 6.55D-04  0.00D+00 EMaxC= 1.00D-01 BMatC= 4.60D-04 BMatP= 4.68D-03
 IDIUse=3 WtCom= 9.93D-01 WtEn= 6.55D-03
 Coeff-Com: -0.855D-03 0.857D-03-0.430D-03 0.296D-03 0.152D-02-0.202D-03
 Coeff-Com: -0.951D-03 0.742D-02 0.494D-01-0.442D-02-0.235D+00 0.170D-01
 Coeff-Com:  0.436D+00 0.729D+00
 Coeff-En:   0.000D+00 0.000D+00 0.000D+00 0.000D+00 0.000D+00 0.000D+00
 Coeff-En:   0.000D+00 0.000D+00 0.000D+00 0.000D+00 0.000D+00 0.000D+00
 Coeff-En:   0.000D+00 0.100D+01
 Coeff:     -0.849D-03 0.851D-03-0.427D-03 0.294D-03 0.151D-02-0.201D-03
 Coeff:     -0.945D-03 0.737D-02 0.490D-01-0.439D-02-0.234D+00 0.169D-01
 Coeff:      0.433D+00 0.731D+00
 Gap=     0.038 Goal=   None    Shift=    0.000
 Gap=     0.092 Goal=   None    Shift=    0.000
 RMSDP=3.43D-05 MaxDP=3.77D-03 DE=-9.83D-04 OVMax= 8.86D-03

 Cycle  15  Pass 1  IDiag  1:
 RMSU=  1.82D-05    CP:  9.64D-01  7.02D-01  3.91D-01  2.41D-01  6.60D-01
                    CP:  2.34D-01  2.59D-01  5.55D-01  1.55D+00  1.92D+00
                    CP:  1.82D+00  1.85D+00  1.14D+00  9.18D-01
 E= -3053.04519317497     Delta-E=       -0.000154580841 Rises=F Damp=F
 DIIS: error= 1.22D-04 at cycle  15 NSaved=  15.
 NSaved=15 IEnMin=15 EnMin= -3053.04519317497     IErMin=15 ErrMin= 1.22D-04
 ErrMax= 1.22D-04  0.00D+00 EMaxC= 1.00D-01 BMatC= 6.61D-05 BMatP= 4.60D-04
 IDIUse=3 WtCom= 9.99D-01 WtEn= 1.22D-03
 Coeff-Com:  0.702D-03-0.125D-02-0.223D-03 0.692D-04-0.163D-02 0.139D-03
 Coeff-Com:  0.545D-03 0.971D-04 0.356D-01 0.110D-01-0.132D+00-0.346D-01
 Coeff-Com:  0.210D+00 0.443D+00 0.469D+00
 Coeff-En:   0.000D+00 0.000D+00 0.000D+00 0.000D+00 0.000D+00 0.000D+00
 Coeff-En:   0.000D+00 0.000D+00 0.000D+00 0.000D+00 0.000D+00 0.000D+00
 Coeff-En:   0.000D+00 0.000D+00 0.100D+01
 Coeff:      0.701D-03-0.125D-02-0.222D-03 0.691D-04-0.162D-02 0.139D-03
 Coeff:      0.544D-03 0.970D-04 0.355D-01 0.110D-01-0.132D+00-0.345D-01
 Coeff:      0.210D+00 0.442D+00 0.469D+00
 Gap=     0.038 Goal=   None    Shift=    0.000
 Gap=     0.092 Goal=   None    Shift=    0.000
 RMSDP=1.17D-05 MaxDP=7.81D-04 DE=-1.55D-04 OVMax= 1.84D-03

 Cycle  16  Pass 1  IDiag  1:
 RMSU=  1.00D-05    CP:  9.64D-01  7.01D-01  3.91D-01  2.41D-01  6.60D-01
                    CP:  2.34D-01  2.59D-01  5.54D-01  1.55D+00  1.92D+00
                    CP:  1.83D+00  1.88D+00  1.16D+00  1.01D+00  8.67D-01
 E= -3053.04521497111     Delta-E=       -0.000021796137 Rises=F Damp=F
 DIIS: error= 8.31D-05 at cycle  16 NSaved=  16.
 NSaved=16 IEnMin=16 EnMin= -3053.04521497111     IErMin=16 ErrMin= 8.31D-05
 ErrMax= 8.31D-05  0.00D+00 EMaxC= 1.00D-01 BMatC= 1.53D-05 BMatP= 6.61D-05
 IDIUse=1 WtCom= 1.00D+00 WtEn= 0.00D+00
 Coeff-Com:  0.708D-03-0.123D-02-0.882D-04 0.109D-04-0.930D-03 0.148D-03
 Coeff-Com:  0.105D-02-0.375D-03 0.525D-02-0.971D-03-0.157D-01-0.164D-01
 Coeff-Com:  0.826D-02 0.325D-01 0.284D+00 0.704D+00
 Coeff:      0.708D-03-0.123D-02-0.882D-04 0.109D-04-0.930D-03 0.148D-03
 Coeff:      0.105D-02-0.375D-03 0.525D-02-0.971D-03-0.157D-01-0.164D-01
 Coeff:      0.826D-02 0.325D-01 0.284D+00 0.704D+00
 Gap=     0.039 Goal=   None    Shift=    0.000
 Gap=     0.092 Goal=   None    Shift=    0.000
 RMSDP=1.00D-05 MaxDP=8.58D-04 DE=-2.18D-05 OVMax= 2.03D-03

 Cycle  17  Pass 1  IDiag  1:
 RMSU=  6.11D-06    CP:  9.64D-01  7.01D-01  3.91D-01  2.42D-01  6.61D-01
                    CP:  2.34D-01  2.59D-01  5.53D-01  1.56D+00  1.92D+00
                    CP:  1.84D+00  1.90D+00  1.21D+00  1.08D+00  1.15D+00
                    CP:  1.05D+00
 E= -3053.04522415982     Delta-E=       -0.000009188710 Rises=F Damp=F
 DIIS: error= 1.19D-04 at cycle  17 NSaved=  17.
 NSaved=17 IEnMin=17 EnMin= -3053.04522415982     IErMin=16 ErrMin= 8.31D-05
 ErrMax= 1.19D-04  0.00D+00 EMaxC= 1.00D-01 BMatC= 1.42D-05 BMatP= 1.53D-05
 IDIUse=1 WtCom= 1.00D+00 WtEn= 0.00D+00
 Coeff-Com:  0.621D-04-0.184D-03-0.206D-04-0.342D-04 0.494D-04 0.165D-04
 Coeff-Com:  0.111D-02-0.173D-03-0.741D-02-0.681D-02 0.261D-01 0.648D-02
 Coeff-Com: -0.451D-01-0.113D+00 0.343D-01 0.491D+00 0.614D+00
 Coeff:      0.621D-04-0.184D-03-0.206D-04-0.342D-04 0.494D-04 0.165D-04
 Coeff:      0.111D-02-0.173D-03-0.741D-02-0.681D-02 0.261D-01 0.648D-02
 Coeff:     -0.451D-01-0.113D+00 0.343D-01 0.491D+00 0.614D+00
 Gap=     0.039 Goal=   None    Shift=    0.000
 Gap=     0.092 Goal=   None    Shift=    0.000
 RMSDP=6.43D-06 MaxDP=6.27D-04 DE=-9.19D-06 OVMax= 1.31D-03

 Cycle  18  Pass 1  IDiag  1:
 RMSU=  3.41D-06    CP:  9.64D-01  7.01D-01  3.91D-01  2.42D-01  6.60D-01
                    CP:  2.34D-01  2.59D-01  5.52D-01  1.56D+00  1.92D+00
                    CP:  1.84D+00  1.91D+00  1.23D+00  1.11D+00  1.30D+00
                    CP:  1.42D+00  1.15D+00
 E= -3053.04523018765     Delta-E=       -0.000006027826 Rises=F Damp=F
 DIIS: error= 6.99D-05 at cycle  18 NSaved=  18.
 NSaved=18 IEnMin=18 EnMin= -3053.04523018765     IErMin=18 ErrMin= 6.99D-05
 ErrMax= 6.99D-05  0.00D+00 EMaxC= 1.00D-01 BMatC= 4.88D-06 BMatP= 1.42D-05
 IDIUse=1 WtCom= 1.00D+00 WtEn= 0.00D+00
 Coeff-Com: -0.452D-03 0.659D-03 0.133D-04-0.566D-04 0.473D-03-0.941D-04
 Coeff-Com:  0.734D-03-0.296D-03-0.668D-02-0.407D-02 0.163D-01 0.186D-01
 Coeff-Com: -0.180D-01-0.692D-01-0.109D+00-0.226D-01 0.350D+00 0.844D+00
 Coeff:     -0.452D-03 0.659D-03 0.133D-04-0.566D-04 0.473D-03-0.941D-04
 Coeff:      0.734D-03-0.296D-03-0.668D-02-0.407D-02 0.163D-01 0.186D-01
 Coeff:     -0.180D-01-0.692D-01-0.109D+00-0.226D-01 0.350D+00 0.844D+00
 Gap=     0.039 Goal=   None    Shift=    0.000
 Gap=     0.092 Goal=   None    Shift=    0.000
 RMSDP=5.86D-06 MaxDP=6.56D-04 DE=-6.03D-06 OVMax= 1.60D-03

 Cycle  19  Pass 1  IDiag  1:
 RMSU=  2.72D-06    CP:  9.64D-01  7.02D-01  3.91D-01  2.42D-01  6.60D-01
                    CP:  2.34D-01  2.59D-01  5.53D-01  1.56D+00  1.92D+00
                    CP:  1.84D+00  1.91D+00  1.24D+00  1.15D+00  1.44D+00
                    CP:  1.65D+00  1.65D+00  1.23D+00
 E= -3053.04523358456     Delta-E=       -0.000003396915 Rises=F Damp=F
 DIIS: error= 3.05D-05 at cycle  19 NSaved=  19.
 NSaved=19 IEnMin=19 EnMin= -3053.04523358456     IErMin=19 ErrMin= 3.05D-05
 ErrMax= 3.05D-05  0.00D+00 EMaxC= 1.00D-01 BMatC= 1.68D-06 BMatP= 4.88D-06
 IDIUse=1 WtCom= 1.00D+00 WtEn= 0.00D+00
 Coeff-Com: -0.196D-03 0.306D-03-0.122D-04-0.297D-04 0.281D-03-0.932D-04
 Coeff-Com:  0.422D-03-0.378D-03-0.213D-02 0.147D-03 0.102D-02 0.123D-01
 Coeff-Com:  0.235D-02-0.935D-02-0.907D-01-0.194D+00 0.135D-01 0.641D+00
 Coeff-Com:  0.626D+00
 Coeff:     -0.196D-03 0.306D-03-0.122D-04-0.297D-04 0.281D-03-0.932D-04
 Coeff:      0.422D-03-0.378D-03-0.213D-02 0.147D-03 0.102D-02 0.123D-01
 Coeff:      0.235D-02-0.935D-02-0.907D-01-0.194D+00 0.135D-01 0.641D+00
 Coeff:      0.626D+00
 Gap=     0.039 Goal=   None    Shift=    0.000
 Gap=     0.092 Goal=   None    Shift=    0.000
 RMSDP=4.15D-06 MaxDP=5.67D-04 DE=-3.40D-06 OVMax= 1.29D-03

 Cycle  20  Pass 1  IDiag  1:
 RMSU=  2.11D-06    CP:  9.64D-01  7.02D-01  3.91D-01  2.42D-01  6.60D-01
                    CP:  2.33D-01  2.59D-01  5.52D-01  1.56D+00  1.92D+00
                    CP:  1.84D+00  1.91D+00  1.24D+00  1.18D+00  1.52D+00
                    CP:  1.79D+00  1.91D+00  1.71D+00  1.27D+00
 E= -3053.04523515056     Delta-E=       -0.000001565999 Rises=F Damp=F
 DIIS: error= 1.89D-05 at cycle  20 NSaved=  20.
 NSaved=20 IEnMin=20 EnMin= -3053.04523515056     IErMin=20 ErrMin= 1.89D-05
 ErrMax= 1.89D-05  0.00D+00 EMaxC= 1.00D-01 BMatC= 6.05D-07 BMatP= 1.68D-06
 IDIUse=1 WtCom= 1.00D+00 WtEn= 0.00D+00
 Coeff-Com: -0.476D-04 0.105D-03-0.172D-05-0.611D-05-0.450D-04-0.239D-04
 Coeff-Com:  0.884D-04-0.381D-03 0.162D-02 0.369D-02-0.628D-02 0.174D-02
 Coeff-Com:  0.578D-02 0.123D-01-0.245D-01-0.129D+00-0.128D+00 0.120D+00
 Coeff-Com:  0.420D+00 0.723D+00
 Coeff:     -0.476D-04 0.105D-03-0.172D-05-0.611D-05-0.450D-04-0.239D-04
 Coeff:      0.884D-04-0.381D-03 0.162D-02 0.369D-02-0.628D-02 0.174D-02
 Coeff:      0.578D-02 0.123D-01-0.245D-01-0.129D+00-0.128D+00 0.120D+00
 Coeff:      0.420D+00 0.723D+00
 Gap=     0.039 Goal=   None    Shift=    0.000
 Gap=     0.092 Goal=   None    Shift=    0.000
 RMSDP=3.45D-06 MaxDP=4.82D-04 DE=-1.57D-06 OVMax= 1.17D-03

 Cycle  21  Pass 1  IDiag  1:
 Restarting incremental Fock formation.
 E= -3053.04523588841     Delta-E=       -0.000000737848 Rises=F Damp=F
 DIIS: error= 1.29D-05 at cycle  21 NSaved=  20.
 NSaved=20 IEnMin=20 EnMin= -3053.04523588841     IErMin=20 ErrMin= 1.29D-05
 ErrMax= 1.29D-05  0.00D+00 EMaxC= 1.00D-01 BMatC= 2.84D-07 BMatP= 6.05D-07
 IDIUse=1 WtCom= 1.00D+00 WtEn= 0.00D+00
 Coeff-Com:  0.440D-04-0.510D-04 0.871D-05-0.391D-04-0.168D-04 0.734D-05
 Coeff-Com:  0.995D-04 0.167D-02 0.174D-02-0.221D-02-0.413D-02 0.316D-02
 Coeff-Com: -0.566D-02-0.240D-02-0.225D-01-0.475D-01-0.287D-01 0.656D-01
 Coeff-Com:  0.256D+00 0.785D+00
 Coeff:      0.440D-04-0.510D-04 0.871D-05-0.391D-04-0.168D-04 0.734D-05
 Coeff:      0.995D-04 0.167D-02 0.174D-02-0.221D-02-0.413D-02 0.316D-02
 Coeff:     -0.566D-02-0.240D-02-0.225D-01-0.475D-01-0.287D-01 0.656D-01
 Coeff:      0.256D+00 0.785D+00
 Gap=     0.039 Goal=   None    Shift=    0.000
 Gap=     0.092 Goal=   None    Shift=    0.000
 RMSDP=1.95D-06 MaxDP=2.62D-04 DE=-7.38D-07 OVMax= 6.57D-04

 Cycle  22  Pass 1  IDiag  1:
 RMSU=  1.95D-06    CP:  1.00D+00
 E= -3053.04523613551     Delta-E=       -0.000000247103 Rises=F Damp=F
 DIIS: error= 8.81D-06 at cycle  22 NSaved=  20.
 NSaved=20 IEnMin=20 EnMin= -3053.04523613551     IErMin=20 ErrMin= 8.81D-06
 ErrMax= 8.81D-06  0.00D+00 EMaxC= 1.00D-01 BMatC= 1.99D-07 BMatP= 2.84D-07
 IDIUse=1 WtCom= 1.00D+00 WtEn= 0.00D+00
 Coeff-Com:  0.787D-04-0.125D-03-0.350D-05 0.518D-06 0.488D-05 0.256D-03
 Coeff-Com:  0.766D-03-0.243D-03 0.640D-03-0.460D-02 0.303D-02-0.144D-01
 Coeff-Com: -0.405D-02 0.179D-01 0.202D-01 0.847D-02-0.502D-01-0.190D+00
 Coeff-Com:  0.429D+00 0.784D+00
 Coeff:      0.787D-04-0.125D-03-0.350D-05 0.518D-06 0.488D-05 0.256D-03
 Coeff:      0.766D-03-0.243D-03 0.640D-03-0.460D-02 0.303D-02-0.144D-01
[...]
 00577,0.00002950,-0.00004833,-0.00003033,0.00000506,-0.00003757,0.0000
 0758,-0.00000425,-0.00003557,-0.00000209,0.00000209,0.00001999,0.00004
 024,-0.00000871,-0.00000640,0.00000189,-0.00000158,-0.00000151,-0.0000
 0099,-0.00000889,-0.00000647,-0.00000297,-0.00000197,-0.00000199,0.000
 00050,0.00001060,0.00000695,-0.00001027,0.00000129,-0.00000541,0.00002
 783,0.00001511,0.00001364,0.00000367,-0.00000513,-0.00000082,0.0000034
 6,-0.00000124,-0.00000035,0.00000241,0.00000170,0.00000401,0.00000389,
 -0.00000054,0.00000095,0.00000346,-0.00001522,-0.00001512,-0.00000261,
 0.00010155,0.00009308,-0.00004728,-0.00000459,-0.00000507,-0.00003400,
 0.00000529,0.00004992,0.00001149,0.00000233,-0.00000195,0.00001245,-0.
 00001920,-0.00016352,0.00005581,-0.00004646,0.00012722,-0.00004535,-0.
 00001956,-0.00008280,0.00005178,0.00009385,-0.00003768,0.00000325,-0.0
 0001275,-0.00002577,0.00005660,-0.00002725,-0.00001837,-0.00003260,0.0
 0000556,-0.00000766,0.00000422,0.00000827,0.00003763,-0.00002779,0.000
 00120,-0.00000239,-0.00000140,0.00001353,0.00001072,0.00001916,-0.0000
 7089,-0.00001474,0.00004135,0.00003504,-0.00002652,-0.00001206,-0.0000
 0047,0.00001435,0.00000267,-0.00000287,0.00002341,-0.00000452,0.000008
 54,0.00001982,-0.00000116,-0.00010366,0.00000048,0.00004066,-0.0003341
 7,0.00018573,-0.00016268,0.00027380,0.00075290,0.00040625,-0.00003319,
 0.00001712,-0.00015171,-0.00001006,0.00003052,0.00009085,0.00338222,-0
 .00259972,-0.00045726,-0.00221225,-0.00169937,0.00082886,-0.20514816,-
 0.15065897,-0.02368581,-0.01062790,-0.01008409,-0.00501247,0.00180405,
 -0.00270581,0.00394967,0.00010323,-0.00050322,0.00012698,-0.00098459,0
 .00213330,-0.00079185,0.21488416,0.00000404,0.00003062,-0.00003772,0.0
 0003971,0.00002867,-0.00002406,-0.00000054,-0.00000182,-0.00000273,0.0
 0000182,-0.00000135,-0.00000209,-0.00000213,-0.00000131,0.00000194,0.0
 0001082,0.00000284,-0.00001694,0.00000057,0.00000190,0.00000311,0.0000
 3865,-0.00000794,0.00001167,0.00000612,-0.00001941,0.00001338,-0.00000
 682,-0.00003429,-0.00001804,-0.00001925,0.00000450,0.00004374,0.000010
 20,0.00000496,-0.00001271,-0.00000146,-0.00000174,-0.00000199,-0.00000
 202,0.00000563,0.00001828,-0.00000265,-0.00000107,0.00000126,-0.000010
 21,-0.00000798,-0.00000464,0.00000329,0.00000317,0.00002456,-0.0000025
 2,0.00000402,0.00000793,-0.00000862,-0.00000836,-0.00000611,-0.0000022
 0,-0.00000091,0.00000201,0.00000939,0.00000578,-0.00000421,0.00000038,
 0.00000175,0.00000248,-0.00001591,-0.00000963,0.00000227,-0.00000508,0
 .00003130,0.00000691,-0.00000654,-0.00003272,-0.00002610,0.00001019,0.
 00000353,-0.00002146,-0.00000322,0.00000629,0.00000219,-0.00000720,0.0
 0008137,0.00001207,0.00000862,-0.00006706,0.00000854,-0.00001410,-0.00
 004615,0.00003417,0.00007143,0.00000913,-0.00001004,-0.00006145,-0.000
 04369,0.00001222,-0.00003412,0.00000724,-0.00001019,0.00000612,-0.0000
 1180,0.00001318,0.00002458,0.00001824,-0.00000844,-0.00000062,-0.00000
 218,-0.00000179,-0.00002863,-0.00003198,0.00000684,-0.00002937,-0.0000
 1105,0.00001790,0.00000512,-0.00000871,-0.00000899,0.00000227,0.000011
 05,0.00000205,0.00000238,0.00000899,-0.00000324,0.00000772,0.00000691,
 0.00000149,-0.00007846,-0.00000780,0.00000570,0.00012596,-0.00038648,0
 .00008995,0.00061998,-0.00000283,0.00006834,0.00006211,-0.00000919,0.0
 0012125,0.00009661,-0.00003173,-0.00007605,-0.00216820,0.00403129,-0.0
 0307883,-0.00762309,-0.00599007,0.00074441,-0.15052277,-0.15929663,-0.
 02764703,-0.00450620,-0.00413775,-0.00238048,-0.00288915,0.00428377,0.
 00102941,-0.00082337,0.00004685,-0.00008283,0.00231530,-0.00177181,0.0
 0048860,0.16383432,0.16497256,-0.00004195,0.00003084,-0.00003881,0.000
 01532,0.00001289,-0.00000946,0.00000072,-0.00000010,-0.00000004,-0.000
 00551,-0.00000830,-0.00001039,0.00000005,0.00000001,-0.00000004,-0.000
 01448,-0.00000554,0.00001759,0.00000071,-0.00000049,-0.00000085,0.0000
 2466,0.00000088,-0.00001324,-0.00000383,-0.00002178,0.00000771,-0.0000
 0238,-0.00000188,-0.00001093,-0.00000185,0.00000331,0.00001369,0.00000
 328,0.00000219,-0.00000076,0.00000039,0.00000003,-0.00000016,0.0000003
 9,0.00000190,0.00000343,0.00000017,0.00000006,0.00000035,-0.00000506,0
 .00000070,0.00001228,-0.00000901,-0.00000669,0.00000078,0.00000878,0.0
 0000723,0.00000037,0.00000113,0.00000013,-0.00000189,-0.00000004,0.000
 00002,-0.00000021,0.00000070,0.00000071,-0.00000004,0.00000038,-0.0000
 0001,-0.00000030,0.00001149,0.00000942,0.00000505,-0.00000393,-0.00001
 539,0.00001415,0.00001581,0.00002192,-0.00001064,-0.00001770,0.0000029
 6,0.00002295,0.00000349,-0.00000589,-0.00000180,-0.00000984,-0.0000389
 3,-0.00001920,-0.00001433,0.00002635,0.00000329,0.00001698,0.00001566,
 -0.00002348,0.00003754,0.00000472,0.00001540,-0.00001710,-0.00002321,-
 0.00000062,-0.00001955,-0.00000201,-0.00000847,0.00000443,-0.00001210,
 0.00001251,0.00000452,0.00002104,-0.00000264,0.00000081,-0.00000094,0.
 00000141,-0.00001558,-0.00001492,-0.00000872,-0.00001175,-0.00000910,0
 .00001740,0.00001315,-0.00000892,-0.00000356,-0.00000127,0.00000181,0.
 00000156,-0.00000097,0.00000600,-0.00000067,0.00000146,0.00000413,-0.0
 0000152,0.00010123,-0.00001677,0.00004042,-0.00017778,0.00012299,0.000
 40845,0.00029713,0.00005111,-0.00135486,0.00009697,0.00005671,-0.00003
 566,-0.00007912,-0.00005571,-0.00001490,0.00084637,-0.00191286,-0.0046
 9028,-0.02359945,-0.01923312,0.00078468,-0.02367964,-0.02752003,-0.063
 21862,0.01935797,0.01767110,0.00754059,0.00273723,-0.00024013,-0.00364
 271,-0.00115280,-0.00112953,-0.00011858,-0.00011039,0.00103775,0.00105
 158,0.02545667,0.03009630,0.06204163,-0.00006562,0.00001340,-0.0000725
 3,-0.00000680,-0.00000385,-0.00000271,0.00000082,0.00000090,0.00000128
 ,-0.00002853,-0.00004373,-0.00005232,0.00000077,0.00000018,-0.00000078
 ,-0.00006239,-0.00004115,0.00009575,-0.00000232,0.00000258,0.00000446,
 0.00001540,-0.00011300,-0.00013312,-0.00000031,-0.00001276,0.00000824,
 0.00002000,-0.00001661,-0.00001492,0.00003907,0.00004442,0.00002717,-0
 .00003790,-0.00001644,0.00003324,-0.00000003,0.00000070,0.00000164,-0.
 00001508,-0.00002926,-0.00003847,0.00000041,0.00000008,-0.00000167,0.0
 0002499,0.00003677,0.00004448,-0.00003671,-0.00003770,-0.00000685,0.00
 006295,0.00004170,-0.00001651,0.00001203,0.00001310,0.00001796,0.00000
 122,0.00000187,-0.00000002,-0.00001376,-0.00000532,0.00001920,-0.00000
 242,-0.00000002,0.00000164,0.00005195,0.00004804,-0.00000257,0.0000698
 0,0.00011787,0.00004854,-0.00009831,-0.00010344,-0.00001012,0.00015716
 ,-0.00010989,0.00036046,-0.00002203,0.00006403,-0.00000403,0.00001720,
 -0.00005241,-0.00033077,0.00002294,0.00002017,-0.00001404,0.00003444,-
 0.00004176,0.00001766,0.00001969,-0.00003080,0.00000754,0.00001441,0.0
 0003542,0.00006071,-0.00005436,-0.00002522,-0.00005008,-0.00000005,-0.
 00000652,0.00000516,0.00004071,0.00006172,-0.00002926,0.00000261,-0.00
 000044,0.00000218,0.00002949,0.00002676,0.00004931,-0.00001244,-0.0000
 1133,0.00001944,0.00000658,-0.00000684,-0.00000380,0.00000498,0.000004
 74,0.00000364,-0.00000671,0.00001163,-0.00000036,0.00000126,0.00000607
 ,-0.00000317,-0.00005101,0.00000369,0.00005466,0.00006649,0.00004883,-
 0.00132157,-0.00036772,-0.00651596,0.00136323,-0.00030615,-0.00024009,
 -0.00008046,0.00010504,-0.00002344,0.00000676,-0.00089426,-0.00032931,
 0.00026967,0.00062402,-0.00406368,0.00336635,0.00711513,0.00813723,0.0
 1656703,-0.05911539,-0.02967829,-0.03917440,-0.00043180,-0.00843555,-0
 .02296098,-0.00028959,0.00059157,-0.00020334,0.00038399,0.00023247,0.0
 0100462,-0.00079022,0.00211990,-0.00106998,0.05452237,-0.00002773,0.00
 002734,-0.00008523,0.00003473,0.00003169,-0.00002617,-0.00000112,-0.00
 000171,-0.00000249,0.00001341,0.00001409,0.00002154,-0.00000251,-0.000
 00066,0.00000176,0.00004338,0.00000810,-0.00003662,-0.00000024,0.00000
 651,0.00000183,0.00002787,-0.00000408,0.00004760,-0.00000307,0.0000094
 6,-0.00000074,-0.00001975,-0.00002455,-0.00000562,-0.00001986,-0.00000
 313,0.00002971,0.00001790,0.00000717,-0.00001846,-0.00000115,-0.000001
 32,-0.00000197,0.00000143,0.00001134,0.00002440,-0.00000245,-0.0000010
 0,0.00000126,-0.00000798,-0.00001253,-0.00002396,0.00002017,0.00001459
 ,0.00003290,-0.00003002,-0.00001596,0.00001012,-0.00001206,-0.00001254
 ,-0.00001089,-0.00000283,-0.00000058,0.00000172,0.00001514,0.00000509,
 -0.00000690,-0.00000073,0.00000373,0.00000247,-0.00004050,-0.00002609,
 0.00000175,0.00005925,-0.00003729,-0.00006749,0.00000958,0.00005439,0.
 00002090,-0.00002249,-0.00000018,-0.00007960,0.00001570,-0.00002532,0.
 00000012,0.00014447,-0.00005125,0.00012793,-0.00001970,-0.00001251,0.0
 0002174,-0.00013279,-0.00000702,0.00001714,0.00007224,-0.00000463,-0.0
 0000169,-0.00003587,-0.00006338,0.00002311,0.00000124,-0.00000116,0.00
 000717,0.00000253,0.00000022,-0.00000047,-0.00000090,0.00000210,-0.000
 00439,0.00000002,-0.00000206,-0.00000163,-0.00002408,-0.00001732,0.000
 00209,-0.00003109,-0.00001588,0.00002954,0.00001584,-0.00001210,-0.000
 00766,0.00000051,0.00000988,0.00000255,0.00000060,0.00001264,-0.000005
 31,0.00000784,0.00001110,0.00000238,-0.00000589,-0.00000072,0.00006574
 ,-0.00014544,-0.00002823,-0.00119438,-0.00636286,0.00253135,0.00001688
 ,-0.00013746,-0.00040318,-0.00003633,0.00013037,0.00004214,-0.00006534
 ,-0.00023470,-0.00042039,0.00033568,-0.00392125,0.00337618,0.00066820,
 0.00204192,0.00638830,0.00918508,-0.02973302,-0.08620077,-0.09976048,-
 0.00249370,-0.00463629,-0.01988052,0.00057869,-0.00057049,0.00003775,-
 0.00004983,0.00038661,0.00049043,0.00221772,-0.00170508,0.00025546,0.0
 3561746,0.08329130,-0.00012639,0.00003561,-0.00013987,0.00001974,0.000
 02172,-0.00002279,0.00000017,-0.00000068,-0.00000103,-0.00001943,-0.00
 003425,-0.00004170,-0.00000083,-0.00000088,0.00000081,-0.00003620,-0.0
 0000607,0.00006328,-0.00000348,0.00000096,0.00000608,0.00007355,-0.000
 08142,-0.00009776,0.00001234,-0.00003870,0.00002236,0.00001467,-0.0000
 4111,-0.00002054,0.00002205,0.00004428,0.00005770,-0.00002645,-0.00001
 154,0.00002033,-0.00000102,-0.00000057,0.,-0.00001511,-0.00002192,-0.0
 0002152,-0.00000142,-0.00000075,-0.00000055,0.00002046,0.00002677,0.00
 002774,-0.00002587,-0.00002942,0.00001808,0.00005130,0.00003883,-0.000
 01087,0.00000618,0.00000822,0.00001285,-0.00000024,0.00000093,0.000001
 56,-0.00000776,0.00000018,0.00001508,-0.00000171,0.00000064,0.00000307
 ,0.00002693,0.00002346,-0.00000540,0.00019503,0.00021661,0.00000613,-0
 .00014511,-0.00010283,-0.00001847,0.00019802,-0.00016836,0.00041372,-0
 .00003004,0.00006670,0.00001055,0.00032416,-0.00020001,-0.00026993,-0.
 00001138,0.00007411,-0.00006191,-0.00011934,-0.00018833,-0.00001538,0.
 00010543,-0.00004545,0.00000851,-0.00004234,-0.00001584,0.00008354,-0.
 00004158,-0.00002246,-0.00005170,0.00000437,-0.00000912,0.00000856,0.0
 0003174,0.00005190,-0.00003275,0.00000237,-0.00000063,-0.00000015,0.00
 000244,0.00000761,0.00004135,-0.00005063,-0.00002477,0.00005087,0.0000
 2465,-0.00002136,-0.00001664,0.00000604,0.00001527,0.00000622,-0.00000
 749,0.00002602,-0.00000315,0.00000672,0.00001885,-0.00000303,-0.000074
 43,0.00000640,0.00005751,-0.00023593,-0.00029833,-0.00026122,0.0008718
 1,-0.00076518,0.00210809,-0.00004761,0.00001357,0.00002516,0.00004742,
 0.00001313,-0.00005522,0.00024815,0.00047475,0.00050449,0.00463025,0.0
 0161723,-0.00176288,-0.00682043,-0.01097239,-0.01798965,-0.04042354,-0
 .09905956,-0.28865747,0.00062765,-0.00036041,-0.00043061,-0.00024836,0
 .00005646,-0.00010087,-0.00033255,-0.00058461,-0.00113225,-0.00043972,
 0.00089632,0.00091686,0.04254197,0.10870060,0.30606425,-0.00052725,0.0
 0083545,-0.00032680,0.00002224,-0.00000570,-0.00001557,0.00000260,0.00
 000647,0.00000653,-0.00000068,-0.00000104,0.00001803,0.00000688,0.0000
 0395,-0.00000540,0.00000003,0.00000481,-0.00001050,-0.00000032,-0.0000
 1254,-0.00001163,0.00006308,-0.00006044,0.00005088,-0.00000478,-0.0000
 0467,0.00000611,-0.00001714,0.00009731,-0.00000348,-0.00000257,-0.0000
 0822,-0.00007578,0.00004941,0.00002915,-0.00000836,0.00000909,0.000005
 90,0.00000255,0.00003687,0.00003670,0.00002718,0.00000886,0.00000618,0
 .00000095,-0.00004114,-0.00000149,0.00007004,0.00001729,0.00001514,-0.
 00004390,-0.00008333,-0.00004988,-0.00000778,0.00001070,-0.00000253,-0
 .00003538,0.00000516,-0.00000188,-0.00000998,0.00000827,-0.00000637,-0
 .00003578,0.00000393,-0.00000347,-0.00001260,0.00007722,0.00001380,0.0
 0001295,-0.00028845,0.00006772,-0.00006132,0.00001105,0.00006056,0.000
 16563,-0.00006920,-0.00006573,0.00001606,-0.00000637,-0.00001790,-0.00
 000348,-0.00004089,-0.00010391,-0.00000799,-0.00001048,0.00000361,-0.0
 0000343,0.00006933,0.00007412,-0.00010678,0.00003413,0.00005782,0.0000
 7283,0.00002027,0.00002538,-0.00003079,-0.00000807,0.00000321,0.000015
 91,-0.00000364,0.00000070,0.00000740,-0.00001489,0.00001139,0.00002947
 ,0.00000021,0.00000138,0.00001110,-0.00008886,-0.00007815,-0.00004007,
 -0.00001544,-0.00005137,0.00007346,0.00008473,-0.00005118,0.00000041,-
 0.00001790,-0.00002266,0.00000855,-0.00000833,0.00001219,0.00000654,-0
 .00001096,0.00002327,-0.00001180,-0.00014489,-0.00104599,0.00068194,0.
 00020698,0.00189676,-0.00101813,0.00659337,0.00081556,-0.00583667,-0.0
 0016970,0.00023643,-0.00003135,-0.00024070,-0.00028794,0.00011230,0.00
 195675,-0.00258630,-0.00122710,-0.00031869,-0.00025953,-0.00071892,0.0
 0039251,-0.00550468,-0.00124533,-0.01006080,-0.00391054,0.01875016,-0.
 14734704,-0.05345704,0.13314026,0.00037072,0.00014662,-0.00047267,-0.0
 0036139,0.00053257,0.00001386,-0.00028209,-0.00056169,0.00100534,-0.00
 075605,0.00243306,-0.00077923,0.15088035,0.00025521,0.00007441,0.00018
 743,-0.00000315,-0.00000677,0.00002375,-0.00000169,-0.00000448,-0.0000
 0407,0.00001873,0.00003125,0.00002292,-0.00000398,-0.00000171,0.000003
 26,0.00009634,0.00008403,-0.00013091,-0.00000351,0.00000576,0.00000932
 ,-0.00008877,0.00013940,0.00006012,-0.00001172,0.00002198,-0.00003406,
 0.00000990,-0.00006702,0.00002966,-0.00003368,-0.00003996,0.00000805,0
 .00000706,-0.00000203,-0.00002314,-0.00000533,-0.00000215,-0.00000332,
 -0.00000693,0.00000799,0.00002014,-0.00000531,-0.00000247,0.00000074,-
 0.00001697,-0.00003136,-0.00007335,0.00002601,0.00002668,-0.00000013,-
 0.00001362,-0.00001849,0.00005621,-0.00003028,-0.00003428,-0.00002441,
 -0.00000387,-0.00000149,0.00000401,0.00003389,0.00002143,-0.00002381,0
 .00000196,0.00000074,0.00000400,-0.00008494,-0.00003105,0.00001270,0.0
 0007007,0.00003692,-0.00002200,-0.00006449,-0.00024494,-0.00028239,0.0
 0006696,0.00005516,-0.00015360,0.00000039,0.00001729,0.00000541,-0.000
 02764,0.00011653,0.00014824,0.00000593,0.00003944,-0.00001020,-0.00015
 113,-0.00028261,0.00028175,-0.00006023,0.00003133,-0.00006524,0.000035
 85,-0.00003630,0.00000146,0.00002696,0.00001216,0.00003606,0.00000389,
 -0.00000022,-0.00000125,-0.00001659,-0.00004112,0.00001225,-0.00000247
 ,-0.00000198,-0.00000647,0.00003426,0.00003297,-0.00002019,0.00004184,
 0.00000389,-0.00004048,-0.00004915,0.00001039,0.00000079,0.00000149,0.
 00000392,-0.00000340,0.00000937,-0.00001512,0.00000529,0.00000939,-0.0
 0001396,0.00000640,-0.00040352,-0.00020819,-0.00020995,0.00186144,-0.0
 0153395,0.00127614,0.00685550,0.00670879,-0.01023462,0.00031242,-0.000
 16434,0.00032742,-0.00017020,0.00035459,-0.00064873,-0.00315097,0.0021
 8050,-0.00256085,-0.00004581,-0.00030737,-0.00037737,-0.00568013,0.001
 94685,-0.00285757,-0.01110408,-0.00280776,0.01749928,-0.05205435,-0.06
 072753,0.04784037,0.00040349,0.00024758,-0.00055886,0.00058056,-0.0005
 6119,0.00026322,-0.00087153,0.00007816,0.00081801,0.00269152,-0.001925
 97,0.00064981,0.06070564,0.05682568,-0.00057316,0.00020346,-0.00031685
 ,0.00002205,0.00000570,-0.00002260,0.00000425,0.00000775,0.00000705,-0
 .00001640,-0.00001774,0.00000075,0.00000764,0.00000470,-0.00000658,-0.
 00006117,0.00001190,0.00005170,0.00000222,-0.00001178,-0.00001888,0.00
 010188,-0.00008456,-0.00007998,-0.00000440,-0.00003961,0.00003868,-0.0
 0004509,0.00010842,-0.00003388,0.00001857,-0.00000676,-0.00006113,0.00
 004791,0.00003230,-0.00000606,0.00001032,0.00000592,0.00000233,0.00003
 489,0.00003844,0.00002123,0.00000997,0.00000636,0.00000195,-0.00002555
 ,0.00001247,0.00009808,-0.00003141,0.00001807,-0.00002898,-0.00002219,
 -0.00004179,-0.00003230,0.00002552,0.00001588,-0.00002598,0.00000495,-
 0.00000095,-0.00001082,-0.00000800,-0.00000843,-0.00002088,0.00000380,
 -0.00000438,-0.00001252,0.00009003,0.00005486,0.00001145,-0.00000987,-
 0.00020903,0.00005159,0.00005258,0.00024983,0.00031290,-0.00016900,-0.
 00005590,0.00010960,-0.00000941,-0.00002309,-0.00000479,-0.00003264,-0
 .00010157,-0.00013800,-0.00001392,-0.00003203,0.00000025,0.00023676,0.
 00027651,-0.00029716,0.00008851,-0.00000647,0.00009481,0.00001681,0.00
 002986,-0.00004103,-0.00002224,0.00000551,0.00001086,0.00000195,-0.000
 01248,0.00002722,0.00000071,0.00002989,0.00003504,-0.00000193,0.000004
 48,0.00001145,-0.00009486,-0.00011102,-0.00004030,0.00007351,-0.000078
 25,0.00011783,0.00005575,-0.00002462,0.00000785,-0.00000503,-0.0000116
 8,0.00001463,-0.00001736,0.00001811,-0.00000059,0.00000460,0.00001044,
 -0.00001234,0.00158956,-0.00031388,0.00013153,0.00070982,0.00160259,0.
 00137532,0.01894529,0.00855528,-0.01850383,-0.00019677,0.00010521,0.00
 018741,-0.00124076,-0.00079968,-0.00051643,-0.00164372,-0.00359702,-0.
 00368598,-0.00100376,-0.00085191,-0.00029532,-0.00033367,-0.00191997,0
 .00161516,-0.00420829,-0.00181078,0.00758610,0.12944150,0.04840214,-0.
 22618105,0.00091434,0.00048490,-0.00110340,-0.00003710,0.00028520,-0.0
 0000123,-0.00017441,-0.00030374,0.00030990,-0.00040519,0.00113679,0.00
 067054,-0.14210839,-0.05124384,0.23859570\\0.00001186,0.00000432,-0.00
 002315,0.00000324,0.00000776,-0.00000352,0.00000045,-0.00000081,-0.000
 00037,0.00000104,-0.00000039,-0.00000452,-0.00000120,0.,0.00000042,-0.
 00000098,0.00000088,-0.00000326,0.00000091,0.00000003,0.00000048,0.000
 00343,0.00000309,-0.00000103,-0.00000127,0.00000132,-0.00000012,-0.000
 00615,-0.00000285,-0.00001393,-0.00000246,0.00000291,0.00001709,0.0000
 0389,-0.00000048,-0.00000770,-0.00000192,0.00000078,0.00000072,0.00000
 313,0.00000054,0.00000641,-0.00000128,0.00000021,-0.00000146,-0.000006
 22,0.00000222,0.00000506,-0.00000799,0.00000307,0.00001864,0.00000707,
 0.00000181,-0.00000197,-0.00000252,-0.00000381,-0.00000040,0.00000055,
 0.00000043,0.00000106,0.00000400,0.00000053,0.00000058,-0.00000117,-0.
 00000039,0.00000057,-0.00000124,-0.00000250,-0.00000322,-0.00001065,0.
 00001072,0.00000201,0.00001066,-0.00001057,0.00000188,-0.00000452,0.00
 000230,-0.00000059,0.00000065,-0.00000076,0.00000051,0.00000139,0.0000
 0031,0.00000202,0.00000046,-0.00000186,0.00000068,-0.00000362,-0.00000
 129,-0.00000107,-0.00000821,0.00000563,0.00001400,-0.00000435,-0.00000
 464,-0.00000053,0.00000201,0.00000376,0.00000287,-0.00000142,0.0000018
 9,-0.00000108,-0.00000171,-0.00000154,0.00000551,0.00000083,-0.0000012
 8,0.00000043,0.00000268,-0.00001230,-0.00001226,0.00000900,0.00000733,
 -0.00000794,-0.00001148,0.00000247,0.00000333,0.00000059,-0.00000158,0
 .00000136,0.00000428,0.00000052,-0.00000009,0.00000367,-0.00000138,-0.
 00000039,0.00000013,-0.00001076,-0.00000071,0.00000163,-0.00001617,0.0
 0000013,0.00002427,0.00002793,-0.00000344,-0.00000796,0.00000629,-0.00
 000246,-0.00000535,-0.00000842,0.00000537,-0.00001113,-0.00000861,0.00
 000620,0.00000436,0.00000431,0.00000226,-0.00000178,-0.00000338,-0.000
 00308,0.00000298,-0.00000467,0.00000019,-0.00000513,-0.00000201,0.0000
 0049,0.00000104,-0.00000066,-0.00000084,-0.00000038,-0.00000031,0.0000
 0035,0.00000035,-0.00000011,0.00000038,-0.00000046,0.00000004,-0.00000
 097,0.00000201,0.00000015,-0.00000090\\\@
 The archive entry for this job was punched.


 A MAN THINKING OR WORKING IS ALWAYS ALONE, 
 LET HIM BE WHERE HE WILL.

                                    -- THOREAU
 Job cpu time:       0 days  7 hours 46 minutes 41.1 seconds.
 Elapsed time:       0 days  0 hours 29 minutes 26.2 seconds.
 File lengths (MBytes):  RWF=   4640 Int=      0 D2E=      0 Chk=     64 Scr=     16
 Normal termination of Gaussian 16 at Thu Nov  7 13:09:40 2024.
